+ 1 0 1 tcp 40 ------- 2 0.1 1.1 0 0
- 1 0 1 tcp 40 ------- 2 0.1 1.1 0 0
+ 1 0 1 tcp 40 ------- 1 0.0 1.0 0 1
- 1.00016 0 1 tcp 40 ------- 1 0.0 1.0 0 1
r 1.01016 0 1 tcp 40 ------- 2 0.1 1.1 0 0
+ 1.01016 1 0 ack 40 ------- 2 1.1 0.1 0 2
- 1.01016 1 0 ack 40 ------- 2 1.1 0.1 0 2
r 1.01032 0 1 tcp 40 ------- 1 0.0 1.0 0 1
+ 1.01032 1 0 ack 40 ------- 1 1.0 0.0 0 3
- 1.01032 1 0 ack 40 ------- 1 1.0 0.0 0 3
r 1.02032 1 0 ack 40 ------- 2 1.1 0.1 0 2
+ 1.02032 0 1 tcp 1040 ------- 2 0.1 1.1 1 4
- 1.02032 0 1 tcp 1040 ------- 2 0.1 1.1 1 4
+ 1.02032 0 1 tcp 1040 ------- 2 0.1 1.1 2 5
r 1.02048 1 0 ack 40 ------- 1 1.0 0.0 0 3
+ 1.02048 0 1 tcp 1040 ------- 1 0.0 1.0 1 6
+ 1.02048 0 1 tcp 1040 ------- 1 0.0 1.0 2 7
- 1.02448 0 1 tcp 1040 ------- 2 0.1 1.1 2 5
- 1.02864 0 1 tcp 1040 ------- 1 0.0 1.0 1 6
- 1.0328 0 1 tcp 1040 ------- 1 0.0 1.0 2 7
r 1.03448 0 1 tcp 1040 ------- 2 0.1 1.1 1 4
+ 1.03448 1 0 ack 40 ------- 2 1.1 0.1 1 8
- 1.03448 1 0 ack 40 ------- 2 1.1 0.1 1 8
r 1.03864 0 1 tcp 1040 ------- 2 0.1 1.1 2 5
+ 1.03864 1 0 ack 40 ------- 2 1.1 0.1 2 9
- 1.03864 1 0 ack 40 ------- 2 1.1 0.1 2 9
r 1.0428 0 1 tcp 1040 ------- 1 0.0 1.0 1 6
+ 1.0428 1 0 ack 40 ------- 1 1.0 0.0 1 10
- 1.0428 1 0 ack 40 ------- 1 1.0 0.0 1 10
r 1.04464 1 0 ack 40 ------- 2 1.1 0.1 1 8
+ 1.04464 0 1 tcp 1040 ------- 2 0.1 1.1 3 11
- 1.04464 0 1 tcp 1040 ------- 2 0.1 1.1 3 11
+ 1.04464 0 1 tcp 1040 ------- 2 0.1 1.1 4 12
r 1.04696 0 1 tcp 1040 ------- 1 0.0 1.0 2 7
+ 1.04696 1 0 ack 40 ------- 1 1.0 0.0 2 13
- 1.04696 1 0 ack 40 ------- 1 1.0 0.0 2 13
r 1.0488 1 0 ack 40 ------- 2 1.1 0.1 2 9
+ 1.0488 0 1 tcp 1040 ------- 2 0.1 1.1 5 14
+ 1.0488 0 1 tcp 1040 ------- 2 0.1 1.1 6 15
- 1.0488 0 1 tcp 1040 ------- 2 0.1 1.1 4 12
r 1.05296 1 0 ack 40 ------- 1 1.0 0.0 1 10
+ 1.05296 0 1 tcp 1040 ------- 1 0.0 1.0 3 16
+ 1.05296 0 1 tcp 1040 ------- 1 0.0 1.0 4 17
- 1.05296 0 1 tcp 1040 ------- 2 0.1 1.1 5 14
r 1.05712 1 0 ack 40 ------- 1 1.0 0.0 2 13
+ 1.05712 0 1 tcp 1040 ------- 1 0.0 1.0 5 18
+ 1.05712 0 1 tcp 1040 ------- 1 0.0 1.0 6 19
- 1.05712 0 1 tcp 1040 ------- 2 0.1 1.1 6 15
r 1.0588 0 1 tcp 1040 ------- 2 0.1 1.1 3 11
+ 1.0588 1 0 ack 40 ------- 2 1.1 0.1 3 20
- 1.0588 1 0 ack 40 ------- 2 1.1 0.1 3 20
- 1.06128 0 1 tcp 1040 ------- 1 0.0 1.0 3 16
r 1.06296 0 1 tcp 1040 ------- 2 0.1 1.1 4 12
+ 1.06296 1 0 ack 40 ------- 2 1.1 0.1 4 21
- 1.06296 1 0 ack 40 ------- 2 1.1 0.1 4 21
- 1.06544 0 1 tcp 1040 ------- 1 0.0 1.0 4 17
r 1.06712 0 1 tcp 1040 ------- 2 0.1 1.1 5 14
+ 1.06712 1 0 ack 40 ------- 2 1.1 0.1 5 22
- 1.06712 1 0 ack 40 ------- 2 1.1 0.1 5 22
r 1.06896 1 0 ack 40 ------- 2 1.1 0.1 3 20
+ 1.06896 0 1 tcp 1040 ------- 2 0.1 1.1 7 23
+ 1.06896 0 1 tcp 1040 ------- 2 0.1 1.1 8 24
- 1.0696 0 1 tcp 1040 ------- 1 0.0 1.0 5 18
r 1.07128 0 1 tcp 1040 ------- 2 0.1 1.1 6 15
+ 1.07128 1 0 ack 40 ------- 2 1.1 0.1 6 25
- 1.07128 1 0 ack 40 ------- 2 1.1 0.1 6 25
r 1.07312 1 0 ack 40 ------- 2 1.1 0.1 4 21
+ 1.07312 0 1 tcp 1040 ------- 2 0.1 1.1 9 26
+ 1.07312 0 1 tcp 1040 ------- 2 0.1 1.1 10 27
- 1.07376 0 1 tcp 1040 ------- 1 0.0 1.0 6 19
r 1.07544 0 1 tcp 1040 ------- 1 0.0 1.0 3 16
+ 1.07544 1 0 ack 40 ------- 1 1.0 0.0 3 28
- 1.07544 1 0 ack 40 ------- 1 1.0 0.0 3 28
r 1.07728 1 0 ack 40 ------- 2 1.1 0.1 5 22
+ 1.07728 0 1 tcp 1040 ------- 2 0.1 1.1 11 29
+ 1.07728 0 1 tcp 1040 ------- 2 0.1 1.1 12 30
- 1.07792 0 1 tcp 1040 ------- 2 0.1 1.1 7 23
r 1.0796 0 1 tcp 1040 ------- 1 0.0 1.0 4 17
+ 1.0796 1 0 ack 40 ------- 1 1.0 0.0 4 31
- 1.0796 1 0 ack 40 ------- 1 1.0 0.0 4 31
r 1.08144 1 0 ack 40 ------- 2 1.1 0.1 6 25
+ 1.08144 0 1 tcp 1040 ------- 2 0.1 1.1 13 32
+ 1.08144 0 1 tcp 1040 ------- 2 0.1 1.1 14 33
- 1.08208 0 1 tcp 1040 ------- 2 0.1 1.1 8 24
r 1.08376 0 1 tcp 1040 ------- 1 0.0 1.0 5 18
+ 1.08376 1 0 ack 40 ------- 1 1.0 0.0 5 34
- 1.08376 1 0 ack 40 ------- 1 1.0 0.0 5 34
r 1.0856 1 0 ack 40 ------- 1 1.0 0.0 3 28
+ 1.0856 0 1 tcp 1040 ------- 1 0.0 1.0 7 35
+ 1.0856 0 1 tcp 1040 ------- 1 0.0 1.0 8 36
- 1.08624 0 1 tcp 1040 ------- 2 0.1 1.1 9 26
r 1.08792 0 1 tcp 1040 ------- 1 0.0 1.0 6 19
+ 1.08792 1 0 ack 40 ------- 1 1.0 0.0 6 37
- 1.08792 1 0 ack 40 ------- 1 1.0 0.0 6 37
r 1.08976 1 0 ack 40 ------- 1 1.0 0.0 4 31
+ 1.08976 0 1 tcp 1040 ------- 1 0.0 1.0 9 38
+ 1.08976 0 1 tcp 1040 ------- 1 0.0 1.0 10 39
- 1.0904 0 1 tcp 1040 ------- 2 0.1 1.1 10 27
r 1.09208 0 1 tcp 1040 ------- 2 0.1 1.1 7 23
+ 1.09208 1 0 ack 40 ------- 2 1.1 0.1 7 40
- 1.09208 1 0 ack 40 ------- 2 1.1 0.1 7 40
r 1.09392 1 0 ack 40 ------- 1 1.0 0.0 5 34
+ 1.09392 0 1 tcp 1040 ------- 1 0.0 1.0 11 41
+ 1.09392 0 1 tcp 1040 ------- 1 0.0 1.0 12 42
d 1.09392 0 1 tcp 1040 ------- 1 0.0 1.0 12 42
- 1.09456 0 1 tcp 1040 ------- 2 0.1 1.1 11 29
r 1.09624 0 1 tcp 1040 ------- 2 0.1 1.1 8 24
+ 1.09624 1 0 ack 40 ------- 2 1.1 0.1 8 43
- 1.09624 1 0 ack 40 ------- 2 1.1 0.1 8 43
r 1.09808 1 0 ack 40 ------- 1 1.0 0.0 6 37
+ 1.09808 0 1 tcp 1040 ------- 1 0.0 1.0 13 44
+ 1.09808 0 1 tcp 1040 ------- 1 0.0 1.0 14 45
d 1.09808 0 1 tcp 1040 ------- 1 0.0 1.0 14 45
- 1.09872 0 1 tcp 1040 ------- 2 0.1 1.1 12 30
r 1.1004 0 1 tcp 1040 ------- 2 0.1 1.1 9 26
+ 1.1004 1 0 ack 40 ------- 2 1.1 0.1 9 46
- 1.1004 1 0 ack 40 ------- 2 1.1 0.1 9 46
r 1.10224 1 0 ack 40 ------- 2 1.1 0.1 7 40
+ 1.10224 0 1 tcp 1040 ------- 2 0.1 1.1 15 47
+ 1.10224 0 1 tcp 1040 ------- 2 0.1 1.1 16 48
d 1.10224 0 1 tcp 1040 ------- 2 0.1 1.1 16 48
- 1.10288 0 1 tcp 1040 ------- 2 0.1 1.1 13 32
r 1.10456 0 1 tcp 1040 ------- 2 0.1 1.1 10 27
+ 1.10456 1 0 ack 40 ------- 2 1.1 0.1 10 49
- 1.10456 1 0 ack 40 ------- 2 1.1 0.1 10 49
r 1.1064 1 0 ack 40 ------- 2 1.1 0.1 8 43
+ 1.1064 0 1 tcp 1040 ------- 2 0.1 1.1 17 50
+ 1.1064 0 1 tcp 1040 ------- 2 0.1 1.1 18 51
d 1.1064 0 1 tcp 1040 ------- 2 0.1 1.1 18 51
- 1.10704 0 1 tcp 1040 ------- 2 0.1 1.1 14 33
r 1.10872 0 1 tcp 1040 ------- 2 0.1 1.1 11 29
+ 1.10872 1 0 ack 40 ------- 2 1.1 0.1 11 52
- 1.10872 1 0 ack 40 ------- 2 1.1 0.1 11 52
r 1.11056 1 0 ack 40 ------- 2 1.1 0.1 9 46
+ 1.11056 0 1 tcp 1040 ------- 2 0.1 1.1 19 53
+ 1.11056 0 1 tcp 1040 ------- 2 0.1 1.1 20 54
d 1.11056 0 1 tcp 1040 ------- 2 0.1 1.1 20 54
- 1.1112 0 1 tcp 1040 ------- 1 0.0 1.0 7 35
r 1.11288 0 1 tcp 1040 ------- 2 0.1 1.1 12 30
+ 1.11288 1 0 ack 40 ------- 2 1.1 0.1 12 55
- 1.11288 1 0 ack 40 ------- 2 1.1 0.1 12 55
r 1.11472 1 0 ack 40 ------- 2 1.1 0.1 10 49
+ 1.11472 0 1 tcp 1040 ------- 2 0.1 1.1 21 56
+ 1.11472 0 1 tcp 1040 ------- 2 0.1 1.1 22 57
d 1.11472 0 1 tcp 1040 ------- 2 0.1 1.1 22 57
- 1.11536 0 1 tcp 1040 ------- 1 0.0 1.0 8 36
r 1.11704 0 1 tcp 1040 ------- 2 0.1 1.1 13 32
+ 1.11704 1 0 ack 40 ------- 2 1.1 0.1 13 58
- 1.11704 1 0 ack 40 ------- 2 1.1 0.1 13 58
r 1.11888 1 0 ack 40 ------- 2 1.1 0.1 11 52
+ 1.11888 0 1 tcp 1040 ------- 2 0.1 1.1 23 59
+ 1.11888 0 1 tcp 1040 ------- 2 0.1 1.1 24 60
d 1.11888 0 1 tcp 1040 ------- 2 0.1 1.1 24 60
- 1.11952 0 1 tcp 1040 ------- 1 0.0 1.0 9 38
r 1.1212 0 1 tcp 1040 ------- 2 0.1 1.1 14 33
+ 1.1212 1 0 ack 40 ------- 2 1.1 0.1 14 61
- 1.1212 1 0 ack 40 ------- 2 1.1 0.1 14 61
r 1.12304 1 0 ack 40 ------- 2 1.1 0.1 12 55
+ 1.12304 0 1 tcp 1040 ------- 2 0.1 1.1 25 62
+ 1.12304 0 1 tcp 1040 ------- 2 0.1 1.1 26 63
d 1.12304 0 1 tcp 1040 ------- 2 0.1 1.1 26 63
- 1.12368 0 1 tcp 1040 ------- 1 0.0 1.0 10 39
r 1.12536 0 1 tcp 1040 ------- 1 0.0 1.0 7 35
+ 1.12536 1 0 ack 40 ------- 1 1.0 0.0 7 64
- 1.12536 1 0 ack 40 ------- 1 1.0 0.0 7 64
r 1.1272 1 0 ack 40 ------- 2 1.1 0.1 13 58
+ 1.1272 0 1 tcp 1040 ------- 2 0.1 1.1 27 65
+ 1.1272 0 1 tcp 1040 ------- 2 0.1 1.1 28 66
d 1.1272 0 1 tcp 1040 ------- 2 0.1 1.1 28 66
- 1.12784 0 1 tcp 1040 ------- 1 0.0 1.0 11 41
r 1.12952 0 1 tcp 1040 ------- 1 0.0 1.0 8 36
+ 1.12952 1 0 ack 40 ------- 1 1.0 0.0 8 67
- 1.12952 1 0 ack 40 ------- 1 1.0 0.0 8 67
r 1.13136 1 0 ack 40 ------- 2 1.1 0.1 14 61
+ 1.13136 0 1 tcp 1040 ------- 2 0.1 1.1 29 68
+ 1.13136 0 1 tcp 1040 ------- 2 0.1 1.1 30 69
d 1.13136 0 1 tcp 1040 ------- 2 0.1 1.1 30 69
- 1.132 0 1 tcp 1040 ------- 1 0.0 1.0 13 44
r 1.13368 0 1 tcp 1040 ------- 1 0.0 1.0 9 38
+ 1.13368 1 0 ack 40 ------- 1 1.0 0.0 9 70
- 1.13368 1 0 ack 40 ------- 1 1.0 0.0 9 70
r 1.13552 1 0 ack 40 ------- 1 1.0 0.0 7 64
+ 1.13552 0 1 tcp 1040 ------- 1 0.0 1.0 15 71
+ 1.13552 0 1 tcp 1040 ------- 1 0.0 1.0 16 72
d 1.13552 0 1 tcp 1040 ------- 1 0.0 1.0 16 72
- 1.13616 0 1 tcp 1040 ------- 2 0.1 1.1 15 47
r 1.13784 0 1 tcp 1040 ------- 1 0.0 1.0 10 39
+ 1.13784 1 0 ack 40 ------- 1 1.0 0.0 10 73
- 1.13784 1 0 ack 40 ------- 1 1.0 0.0 10 73
r 1.13968 1 0 ack 40 ------- 1 1.0 0.0 8 67
+ 1.13968 0 1 tcp 1040 ------- 1 0.0 1.0 17 74
+ 1.13968 0 1 tcp 1040 ------- 1 0.0 1.0 18 75
d 1.13968 0 1 tcp 1040 ------- 1 0.0 1.0 18 75
- 1.14032 0 1 tcp 1040 ------- 2 0.1 1.1 17 50
r 1.142 0 1 tcp 1040 ------- 1 0.0 1.0 11 41
+ 1.142 1 0 ack 40 ------- 1 1.0 0.0 11 76
- 1.142 1 0 ack 40 ------- 1 1.0 0.0 11 76
r 1.14384 1 0 ack 40 ------- 1 1.0 0.0 9 70
+ 1.14384 0 1 tcp 1040 ------- 1 0.0 1.0 19 77
+ 1.14384 0 1 tcp 1040 ------- 1 0.0 1.0 20 78
d 1.14384 0 1 tcp 1040 ------- 1 0.0 1.0 20 78
- 1.14448 0 1 tcp 1040 ------- 2 0.1 1.1 19 53
r 1.14616 0 1 tcp 1040 ------- 1 0.0 1.0 13 44
+ 1.14616 1 0 ack 40 ------- 1 1.0 0.0 11 79
- 1.14616 1 0 ack 40 ------- 1 1.0 0.0 11 79
r 1.148 1 0 ack 40 ------- 1 1.0 0.0 10 73
+ 1.148 0 1 tcp 1040 ------- 1 0.0 1.0 21 80
+ 1.148 0 1 tcp 1040 ------- 1 0.0 1.0 22 81
d 1.148 0 1 tcp 1040 ------- 1 0.0 1.0 22 81
- 1.14864 0 1 tcp 1040 ------- 2 0.1 1.1 21 56
r 1.15032 0 1 tcp 1040 ------- 2 0.1 1.1 15 47
+ 1.15032 1 0 ack 40 ------- 2 1.1 0.1 15 82
- 1.15032 1 0 ack 40 ------- 2 1.1 0.1 15 82
r 1.15216 1 0 ack 40 ------- 1 1.0 0.0 11 76
+ 1.15216 0 1 tcp 1040 ------- 1 0.0 1.0 23 83
+ 1.15216 0 1 tcp 1040 ------- 1 0.0 1.0 24 84
d 1.15216 0 1 tcp 1040 ------- 1 0.0 1.0 24 84
- 1.1528 0 1 tcp 1040 ------- 2 0.1 1.1 23 59
r 1.15448 0 1 tcp 1040 ------- 2 0.1 1.1 17 50
+ 1.15448 1 0 ack 40 ------- 2 1.1 0.1 15 85
- 1.15448 1 0 ack 40 ------- 2 1.1 0.1 15 85
r 1.15632 1 0 ack 40 ------- 1 1.0 0.0 11 79
+ 1.15632 0 1 tcp 1040 ------- 1 0.0 1.0 25 86
- 1.15696 0 1 tcp 1040 ------- 2 0.1 1.1 25 62
r 1.15864 0 1 tcp 1040 ------- 2 0.1 1.1 19 53
+ 1.15864 1 0 ack 40 ------- 2 1.1 0.1 15 87
- 1.15864 1 0 ack 40 ------- 2 1.1 0.1 15 87
r 1.16048 1 0 ack 40 ------- 2 1.1 0.1 15 82
+ 1.16048 0 1 tcp 1040 ------- 2 0.1 1.1 31 88
+ 1.16048 0 1 tcp 1040 ------- 2 0.1 1.1 32 89
d 1.16048 0 1 tcp 1040 ------- 2 0.1 1.1 32 89
- 1.16112 0 1 tcp 1040 ------- 2 0.1 1.1 27 65
r 1.1628 0 1 tcp 1040 ------- 2 0.1 1.1 21 56
+ 1.1628 1 0 ack 40 ------- 2 1.1 0.1 15 90
- 1.1628 1 0 ack 40 ------- 2 1.1 0.1 15 90
r 1.16464 1 0 ack 40 ------- 2 1.1 0.1 15 85
+ 1.16464 0 1 tcp 1040 ------- 2 0.1 1.1 33 91
- 1.16528 0 1 tcp 1040 ------- 2 0.1 1.1 29 68
r 1.16696 0 1 tcp 1040 ------- 2 0.1 1.1 23 59
+ 1.16696 1 0 ack 40 ------- 2 1.1 0.1 15 92
- 1.16696 1 0 ack 40 ------- 2 1.1 0.1 15 92
r 1.1688 1 0 ack 40 ------- 2 1.1 0.1 15 87
+ 1.1688 0 1 tcp 1040 ------- 2 0.1 1.1 34 93
- 1.16944 0 1 tcp 1040 ------- 1 0.0 1.0 15 71
r 1.17112 0 1 tcp 1040 ------- 2 0.1 1.1 25 62
+ 1.17112 1 0 ack 40 ------- 2 1.1 0.1 15 94
- 1.17112 1 0 ack 40 ------- 2 1.1 0.1 15 94
r 1.17296 1 0 ack 40 ------- 2 1.1 0.1 15 90
+ 1.17296 0 1 tcp 1040 ---A--- 2 0.1 1.1 16 95
- 1.1736 0 1 tcp 1040 ------- 1 0.0 1.0 17 74
r 1.17528 0 1 tcp 1040 ------- 2 0.1 1.1 27 65
+ 1.17528 1 0 ack 40 ------- 2 1.1 0.1 15 96
- 1.17528 1 0 ack 40 ------- 2 1.1 0.1 15 96
r 1.17712 1 0 ack 40 ------- 2 1.1 0.1 15 92
- 1.17776 0 1 tcp 1040 ------- 1 0.0 1.0 19 77
r 1.17944 0 1 tcp 1040 ------- 2 0.1 1.1 29 68
+ 1.17944 1 0 ack 40 ------- 2 1.1 0.1 15 97
- 1.17944 1 0 ack 40 ------- 2 1.1 0.1 15 97
r 1.18128 1 0 ack 40 ------- 2 1.1 0.1 15 94
- 1.18192 0 1 tcp 1040 ------- 1 0.0 1.0 21 80
r 1.1836 0 1 tcp 1040 ------- 1 0.0 1.0 15 71
+ 1.1836 1 0 ack 40 ------- 1 1.0 0.0 11 98
- 1.1836 1 0 ack 40 ------- 1 1.0 0.0 11 98
r 1.18544 1 0 ack 40 ------- 2 1.1 0.1 15 96
- 1.18608 0 1 tcp 1040 ------- 1 0.0 1.0 23 83
r 1.18776 0 1 tcp 1040 ------- 1 0.0 1.0 17 74
+ 1.18776 1 0 ack 40 ------- 1 1.0 0.0 11 99
- 1.18776 1 0 ack 40 ------- 1 1.0 0.0 11 99
r 1.1896 1 0 ack 40 ------- 2 1.1 0.1 15 97
- 1.19024 0 1 tcp 1040 ------- 1 0.0 1.0 25 86
r 1.19192 0 1 tcp 1040 ------- 1 0.0 1.0 19 77
+ 1.19192 1 0 ack 40 ------- 1 1.0 0.0 11 100
- 1.19192 1 0 ack 40 ------- 1 1.0 0.0 11 100
r 1.19376 1 0 ack 40 ------- 1 1.0 0.0 11 98
+ 1.19376 0 1 tcp 1040 ------- 1 0.0 1.0 26 101
- 1.1944 0 1 tcp 1040 ------- 2 0.1 1.1 31 88
r 1.19608 0 1 tcp 1040 ------- 1 0.0 1.0 21 80
+ 1.19608 1 0 ack 40 ------- 1 1.0 0.0 11 102
- 1.19608 1 0 ack 40 ------- 1 1.0 0.0 11 102
r 1.19792 1 0 ack 40 ------- 1 1.0 0.0 11 99
+ 1.19792 0 1 tcp 1040 ---A--- 1 0.0 1.0 12 103
- 1.19856 0 1 tcp 1040 ------- 2 0.1 1.1 33 91
r 1.20024 0 1 tcp 1040 ------- 1 0.0 1.0 23 83
+ 1.20024 1 0 ack 40 ------- 1 1.0 0.0 11 104
- 1.20024 1 0 ack 40 ------- 1 1.0 0.0 11 104
r 1.20208 1 0 ack 40 ------- 1 1.0 0.0 11 100
- 1.20272 0 1 tcp 1040 ------- 2 0.1 1.1 34 93
r 1.2044 0 1 tcp 1040 ------- 1 0.0 1.0 25 86
+ 1.2044 1 0 ack 40 ------- 1 1.0 0.0 11 105
- 1.2044 1 0 ack 40 ------- 1 1.0 0.0 11 105
r 1.20624 1 0 ack 40 ------- 1 1.0 0.0 11 102
- 1.20688 0 1 tcp 1040 ---A--- 2 0.1 1.1 16 95
r 1.20856 0 1 tcp 1040 ------- 2 0.1 1.1 31 88
+ 1.20856 1 0 ack 40 ------- 2 1.1 0.1 15 106
- 1.20856 1 0 ack 40 ------- 2 1.1 0.1 15 106
r 1.2104 1 0 ack 40 ------- 1 1.0 0.0 11 104
- 1.21104 0 1 tcp 1040 ------- 1 0.0 1.0 26 101
r 1.21272 0 1 tcp 1040 ------- 2 0.1 1.1 33 91
+ 1.21272 1 0 ack 40 ------- 2 1.1 0.1 15 107
- 1.21272 1 0 ack 40 ------- 2 1.1 0.1 15 107
r 1.21456 1 0 ack 40 ------- 1 1.0 0.0 11 105
- 1.2152 0 1 tcp 1040 ---A--- 1 0.0 1.0 12 103
r 1.21688 0 1 tcp 1040 ------- 2 0.1 1.1 34 93
+ 1.21688 1 0 ack 40 ------- 2 1.1 0.1 15 108
- 1.21688 1 0 ack 40 ------- 2 1.1 0.1 15 108
r 1.21872 1 0 ack 40 ------- 2 1.1 0.1 15 106
r 1.22104 0 1 tcp 1040 ---A--- 2 0.1 1.1 16 95
+ 1.22104 1 0 ack 40 ------- 2 1.1 0.1 17 109
- 1.22104 1 0 ack 40 ------- 2 1.1 0.1 17 109
r 1.22288 1 0 ack 40 ------- 2 1.1 0.1 15 107
r 1.2252 0 1 tcp 1040 ------- 1 0.0 1.0 26 101
+ 1.2252 1 0 ack 40 ------- 1 1.0 0.0 11 110
- 1.2252 1 0 ack 40 ------- 1 1.0 0.0 11 110
r 1.22704 1 0 ack 40 ------- 2 1.1 0.1 15 108
r 1.22936 0 1 tcp 1040 ---A--- 1 0.0 1.0 12 103
+ 1.22936 1 0 ack 40 ------- 1 1.0 0.0 13 111
- 1.22936 1 0 ack 40 ------- 1 1.0 0.0 13 111
r 1.2312 1 0 ack 40 ------- 2 1.1 0.1 17 109
+ 1.2312 0 1 tcp 1040 ------- 2 0.1 1.1 18 112
- 1.2312 0 1 tcp 1040 ------- 2 0.1 1.1 18 112
+ 1.2312 0 1 tcp 1040 ------- 2 0.1 1.1 19 113
r 1.23536 1 0 ack 40 ------- 1 1.0 0.0 11 110
- 1.23536 0 1 tcp 1040 ------- 2 0.1 1.1 19 113
r 1.23952 1 0 ack 40 ------- 1 1.0 0.0 13 111
+ 1.23952 0 1 tcp 1040 ------- 1 0.0 1.0 14 114
+ 1.23952 0 1 tcp 1040 ------- 1 0.0 1.0 15 115
- 1.23952 0 1 tcp 1040 ------- 1 0.0 1.0 14 114
- 1.24368 0 1 tcp 1040 ------- 1 0.0 1.0 15 115
r 1.24536 0 1 tcp 1040 ------- 2 0.1 1.1 18 112
+ 1.24536 1 0 ack 40 ------- 2 1.1 0.1 19 116
- 1.24536 1 0 ack 40 ------- 2 1.1 0.1 19 116
r 1.24952 0 1 tcp 1040 ------- 2 0.1 1.1 19 113
+ 1.24952 1 0 ack 40 ------- 2 1.1 0.1 19 117
- 1.24952 1 0 ack 40 ------- 2 1.1 0.1 19 117
r 1.25368 0 1 tcp 1040 ------- 1 0.0 1.0 14 114
+ 1.25368 1 0 ack 40 ------- 1 1.0 0.0 15 118
- 1.25368 1 0 ack 40 ------- 1 1.0 0.0 15 118
r 1.25552 1 0 ack 40 ------- 2 1.1 0.1 19 116
+ 1.25552 0 1 tcp 1040 ------- 2 0.1 1.1 20 119
- 1.25552 0 1 tcp 1040 ------- 2 0.1 1.1 20 119
+ 1.25552 0 1 tcp 1040 ------- 2 0.1 1.1 21 120
+ 1.25552 0 1 tcp 1040 ------- 2 0.1 1.1 22 121
r 1.25784 0 1 tcp 1040 ------- 1 0.0 1.0 15 115
+ 1.25784 1 0 ack 40 ------- 1 1.0 0.0 15 122
- 1.25784 1 0 ack 40 ------- 1 1.0 0.0 15 122
r 1.25968 1 0 ack 40 ------- 2 1.1 0.1 19 117
+ 1.25968 0 1 tcp 1040 ------- 2 0.1 1.1 23 123
- 1.25968 0 1 tcp 1040 ------- 2 0.1 1.1 21 120
r 1.26384 1 0 ack 40 ------- 1 1.0 0.0 15 118
+ 1.26384 0 1 tcp 1040 ------- 1 0.0 1.0 16 124
+ 1.26384 0 1 tcp 1040 ------- 1 0.0 1.0 17 125
+ 1.26384 0 1 tcp 1040 ------- 1 0.0 1.0 18 126
- 1.26384 0 1 tcp 1040 ------- 2 0.1 1.1 22 121
r 1.268 1 0 ack 40 ------- 1 1.0 0.0 15 122
+ 1.268 0 1 tcp 1040 ------- 1 0.0 1.0 19 127
- 1.268 0 1 tcp 1040 ------- 2 0.1 1.1 23 123
r 1.26968 0 1 tcp 1040 ------- 2 0.1 1.1 20 119
+ 1.26968 1 0 ack 40 ------- 2 1.1 0.1 21 128
- 1.26968 1 0 ack 40 ------- 2 1.1 0.1 21 128
- 1.27216 0 1 tcp 1040 ------- 1 0.0 1.0 16 124
r 1.27384 0 1 tcp 1040 ------- 2 0.1 1.1 21 120
+ 1.27384 1 0 ack 40 ------- 2 1.1 0.1 21 129
- 1.27384 1 0 ack 40 ------- 2 1.1 0.1 21 129
- 1.27632 0 1 tcp 1040 ------- 1 0.0 1.0 17 125
r 1.278 0 1 tcp 1040 ------- 2 0.1 1.1 22 121
+ 1.278 1 0 ack 40 ------- 2 1.1 0.1 23 130
- 1.278 1 0 ack 40 ------- 2 1.1 0.1 23 130
r 1.27984 1 0 ack 40 ------- 2 1.1 0.1 21 128
+ 1.27984 0 1 tcp 1040 ------- 2 0.1 1.1 24 131
+ 1.27984 0 1 tcp 1040 ------- 2 0.1 1.1 25 132
- 1.28048 0 1 tcp 1040 ------- 1 0.0 1.0 18 126
r 1.28216 0 1 tcp 1040 ------- 2 0.1 1.1 23 123
+ 1.28216 1 0 ack 40 ------- 2 1.1 0.1 23 133
- 1.28216 1 0 ack 40 ------- 2 1.1 0.1 23 133
r 1.284 1 0 ack 40 ------- 2 1.1 0.1 21 129
+ 1.284 0 1 tcp 1040 ------- 2 0.1 1.1 26 134
- 1.28464 0 1 tcp 1040 ------- 1 0.0 1.0 19 127
r 1.28632 0 1 tcp 1040 ------- 1 0.0 1.0 16 124
+ 1.28632 1 0 ack 40 ------- 1 1.0 0.0 17 135
- 1.28632 1 0 ack 40 ------- 1 1.0 0.0 17 135
r 1.28816 1 0 ack 40 ------- 2 1.1 0.1 23 130
+ 1.28816 0 1 tcp 1040 ------- 2 0.1 1.1 27 136
+ 1.28816 0 1 tcp 1040 ------- 2 0.1 1.1 28 137
- 1.2888 0 1 tcp 1040 ------- 2 0.1 1.1 24 131
r 1.29048 0 1 tcp 1040 ------- 1 0.0 1.0 17 125
+ 1.29048 1 0 ack 40 ------- 1 1.0 0.0 17 138
- 1.29048 1 0 ack 40 ------- 1 1.0 0.0 17 138
r 1.29232 1 0 ack 40 ------- 2 1.1 0.1 23 133
+ 1.29232 0 1 tcp 1040 ------- 2 0.1 1.1 29 139
- 1.29296 0 1 tcp 1040 ------- 2 0.1 1.1 25 132
r 1.29464 0 1 tcp 1040 ------- 1 0.0 1.0 18 126
+ 1.29464 1 0 ack 40 ------- 1 1.0 0.0 19 140
- 1.29464 1 0 ack 40 ------- 1 1.0 0.0 19 140
r 1.29648 1 0 ack 40 ------- 1 1.0 0.0 17 135
+ 1.29648 0 1 tcp 1040 ------- 1 0.0 1.0 20 141
+ 1.29648 0 1 tcp 1040 ------- 1 0.0 1.0 21 142
- 1.29712 0 1 tcp 1040 ------- 2 0.1 1.1 26 134
r 1.2988 0 1 tcp 1040 ------- 1 0.0 1.0 19 127
+ 1.2988 1 0 ack 40 ------- 1 1.0 0.0 19 143
- 1.2988 1 0 ack 40 ------- 1 1.0 0.0 19 143
r 1.30064 1 0 ack 40 ------- 1 1.0 0.0 17 138
+ 1.30064 0 1 tcp 1040 ------- 1 0.0 1.0 22 144
- 1.30128 0 1 tcp 1040 ------- 2 0.1 1.1 27 136
r 1.30296 0 1 tcp 1040 ------- 2 0.1 1.1 24 131
+ 1.30296 1 0 ack 40 ------- 2 1.1 0.1 25 145
- 1.30296 1 0 ack 40 ------- 2 1.1 0.1 25 145
r 1.3048 1 0 ack 40 ------- 1 1.0 0.0 19 140
+ 1.3048 0 1 tcp 1040 ------- 1 0.0 1.0 23 146
+ 1.3048 0 1 tcp 1040 ------- 1 0.0 1.0 24 147
- 1.30544 0 1 tcp 1040 ------- 2 0.1 1.1 28 137
r 1.30712 0 1 tcp 1040 ------- 2 0.1 1.1 25 132
+ 1.30712 1 0 ack 40 ------- 2 1.1 0.1 25 148
- 1.30712 1 0 ack 40 ------- 2 1.1 0.1 25 148
r 1.30896 1 0 ack 40 ------- 1 1.0 0.0 19 143
+ 1.30896 0 1 tcp 1040 ------- 1 0.0 1.0 25 149
- 1.3096 0 1 tcp 1040 ------- 2 0.1 1.1 29 139
r 1.31128 0 1 tcp 1040 ------- 2 0.1 1.1 26 134
+ 1.31128 1 0 ack 40 ------- 2 1.1 0.1 27 150
- 1.31128 1 0 ack 40 ------- 2 1.1 0.1 27 150
r 1.31312 1 0 ack 40 ------- 2 1.1 0.1 25 145
+ 1.31312 0 1 tcp 1040 ------- 2 0.1 1.1 30 151
+ 1.31312 0 1 tcp 1040 ------- 2 0.1 1.1 31 152
- 1.31376 0 1 tcp 1040 ------- 1 0.0 1.0 20 141
r 1.31544 0 1 tcp 1040 ------- 2 0.1 1.1 27 136
+ 1.31544 1 0 ack 40 ------- 2 1.1 0.1 27 153
- 1.31544 1 0 ack 40 ------- 2 1.1 0.1 27 153
r 1.31728 1 0 ack 40 ------- 2 1.1 0.1 25 148
+ 1.31728 0 1 tcp 1040 ------- 2 0.1 1.1 32 154
- 1.31792 0 1 tcp 1040 ------- 1 0.0 1.0 21 142
r 1.3196 0 1 tcp 1040 ------- 2 0.1 1.1 28 137
+ 1.3196 1 0 ack 40 ------- 2 1.1 0.1 29 155
- 1.3196 1 0 ack 40 ------- 2 1.1 0.1 29 155
r 1.32144 1 0 ack 40 ------- 2 1.1 0.1 27 150
+ 1.32144 0 1 tcp 1040 ------- 2 0.1 1.1 33 156
+ 1.32144 0 1 tcp 1040 ------- 2 0.1 1.1 34 157
- 1.32208 0 1 tcp 1040 ------- 1 0.0 1.0 22 144
r 1.32376 0 1 tcp 1040 ------- 2 0.1 1.1 29 139
+ 1.32376 1 0 ack 40 ------- 2 1.1 0.1 29 158
- 1.32376 1 0 ack 40 ------- 2 1.1 0.1 29 158
r 1.3256 1 0 ack 40 ------- 2 1.1 0.1 27 153
+ 1.3256 0 1 tcp 1040 ------- 2 0.1 1.1 35 159
- 1.32624 0 1 tcp 1040 ------- 1 0.0 1.0 23 146
r 1.32792 0 1 tcp 1040 ------- 1 0.0 1.0 20 141
+ 1.32792 1 0 ack 40 ------- 1 1.0 0.0 21 160
- 1.32792 1 0 ack 40 ------- 1 1.0 0.0 21 160
r 1.32976 1 0 ack 40 ------- 2 1.1 0.1 29 155
+ 1.32976 0 1 tcp 1040 ------- 2 0.1 1.1 36 161
+ 1.32976 0 1 tcp 1040 ------- 2 0.1 1.1 37 162
d 1.32976 0 1 tcp 1040 ------- 2 0.1 1.1 37 162
- 1.3304 0 1 tcp 1040 ------- 1 0.0 1.0 24 147
r 1.33208 0 1 tcp 1040 ------- 1 0.0 1.0 21 142
+ 1.33208 1 0 ack 40 ------- 1 1.0 0.0 21 163
- 1.33208 1 0 ack 40 ------- 1 1.0 0.0 21 163
r 1.33392 1 0 ack 40 ------- 2 1.1 0.1 29 158
+ 1.33392 0 1 tcp 1040 ------- 2 0.1 1.1 38 164
- 1.33456 0 1 tcp 1040 ------- 1 0.0 1.0 25 149
r 1.33624 0 1 tcp 1040 ------- 1 0.0 1.0 22 144
+ 1.33624 1 0 ack 40 ------- 1 1.0 0.0 23 165
- 1.33624 1 0 ack 40 ------- 1 1.0 0.0 23 165
r 1.33808 1 0 ack 40 ------- 1 1.0 0.0 21 160
+ 1.33808 0 1 tcp 1040 ------- 1 0.0 1.0 26 166
+ 1.33808 0 1 tcp 1040 ------- 1 0.0 1.0 27 167
d 1.33808 0 1 tcp 1040 ------- 1 0.0 1.0 27 167
- 1.33872 0 1 tcp 1040 ------- 2 0.1 1.1 30 151
r 1.3404 0 1 tcp 1040 ------- 1 0.0 1.0 23 146
+ 1.3404 1 0 ack 40 ------- 1 1.0 0.0 23 168
- 1.3404 1 0 ack 40 ------- 1 1.0 0.0 23 168
r 1.34224 1 0 ack 40 ------- 1 1.0 0.0 21 163
+ 1.34224 0 1 tcp 1040 ------- 1 0.0 1.0 28 169
- 1.34288 0 1 tcp 1040 ------- 2 0.1 1.1 31 152
r 1.34456 0 1 tcp 1040 ------- 1 0.0 1.0 24 147
+ 1.34456 1 0 ack 40 ------- 1 1.0 0.0 26 170
- 1.34456 1 0 ack 40 ------- 1 1.0 0.0 26 170
r 1.3464 1 0 ack 40 ------- 1 1.0 0.0 23 165
+ 1.3464 0 1 tcp 1040 ------- 1 0.0 1.0 29 171
- 1.34704 0 1 tcp 1040 ------- 2 0.1 1.1 32 154
r 1.34872 0 1 tcp 1040 ------- 1 0.0 1.0 25 149
+ 1.34872 1 0 ack 40 ------- 1 1.0 0.0 26 172
- 1.34872 1 0 ack 40 ------- 1 1.0 0.0 26 172
r 1.35056 1 0 ack 40 ------- 1 1.0 0.0 23 168
+ 1.35056 0 1 tcp 1040 ------- 1 0.0 1.0 30 173
- 1.3512 0 1 tcp 1040 ------- 2 0.1 1.1 33 156
r 1.35288 0 1 tcp 1040 ------- 2 0.1 1.1 30 151
+ 1.35288 1 0 ack 40 ------- 2 1.1 0.1 31 174
- 1.35288 1 0 ack 40 ------- 2 1.1 0.1 31 174
r 1.35472 1 0 ack 40 ------- 1 1.0 0.0 26 170
+ 1.35472 0 1 tcp 1040 ------- 1 0.0 1.0 31 175
+ 1.35472 0 1 tcp 1040 ------- 1 0.0 1.0 32 176
d 1.35472 0 1 tcp 1040 ------- 1 0.0 1.0 32 176
- 1.35536 0 1 tcp 1040 ------- 2 0.1 1.1 34 157
r 1.35704 0 1 tcp 1040 ------- 2 0.1 1.1 31 152
+ 1.35704 1 0 ack 40 ------- 2 1.1 0.1 31 177
- 1.35704 1 0 ack 40 ------- 2 1.1 0.1 31 177
r 1.35888 1 0 ack 40 ------- 1 1.0 0.0 26 172
+ 1.35888 0 1 tcp 1040 ------- 1 0.0 1.0 33 178
- 1.35952 0 1 tcp 1040 ------- 2 0.1 1.1 35 159
r 1.3612 0 1 tcp 1040 ------- 2 0.1 1.1 32 154
+ 1.3612 1 0 ack 40 ------- 2 1.1 0.1 34 179
- 1.3612 1 0 ack 40 ------- 2 1.1 0.1 34 179
r 1.36304 1 0 ack 40 ------- 2 1.1 0.1 31 174
+ 1.36304 0 1 tcp 1040 ------- 2 0.1 1.1 39 180
- 1.36368 0 1 tcp 1040 ------- 2 0.1 1.1 36 161
r 1.36536 0 1 tcp 1040 ------- 2 0.1 1.1 33 156
+ 1.36536 1 0 ack 40 ------- 2 1.1 0.1 34 181
- 1.36536 1 0 ack 40 ------- 2 1.1 0.1 34 181
r 1.3672 1 0 ack 40 ------- 2 1.1 0.1 31 177
+ 1.3672 0 1 tcp 1040 ------- 2 0.1 1.1 40 182
- 1.36784 0 1 tcp 1040 ------- 2 0.1 1.1 38 164
r 1.36952 0 1 tcp 1040 ------- 2 0.1 1.1 34 157
+ 1.36952 1 0 ack 40 ------- 2 1.1 0.1 34 183
- 1.36952 1 0 ack 40 ------- 2 1.1 0.1 34 183
r 1.37136 1 0 ack 40 ------- 2 1.1 0.1 34 179
+ 1.37136 0 1 tcp 1040 ------- 2 0.1 1.1 41 184
+ 1.37136 0 1 tcp 1040 ------- 2 0.1 1.1 42 185
d 1.37136 0 1 tcp 1040 ------- 2 0.1 1.1 42 185
- 1.372 0 1 tcp 1040 ------- 1 0.0 1.0 26 166
r 1.37368 0 1 tcp 1040 ------- 2 0.1 1.1 35 159
+ 1.37368 1 0 ack 40 ------- 2 1.1 0.1 35 186
- 1.37368 1 0 ack 40 ------- 2 1.1 0.1 35 186
r 1.37552 1 0 ack 40 ------- 2 1.1 0.1 34 181
+ 1.37552 0 1 tcp 1040 ------- 2 0.1 1.1 43 187
- 1.37616 0 1 tcp 1040 ------- 1 0.0 1.0 28 169
r 1.37784 0 1 tcp 1040 ------- 2 0.1 1.1 36 161
+ 1.37784 1 0 ack 40 ------- 2 1.1 0.1 36 188
- 1.37784 1 0 ack 40 ------- 2 1.1 0.1 36 188
r 1.37968 1 0 ack 40 ------- 2 1.1 0.1 34 183
+ 1.37968 0 1 tcp 1040 ------- 2 0.1 1.1 44 189
- 1.38032 0 1 tcp 1040 ------- 1 0.0 1.0 29 171
r 1.382 0 1 tcp 1040 ------- 2 0.1 1.1 38 164
+ 1.382 1 0 ack 40 ------- 2 1.1 0.1 36 190
- 1.382 1 0 ack 40 ------- 2 1.1 0.1 36 190
r 1.38384 1 0 ack 40 ------- 2 1.1 0.1 35 186
- 1.38448 0 1 tcp 1040 ------- 1 0.0 1.0 30 173
r 1.38616 0 1 tcp 1040 ------- 1 0.0 1.0 26 166
+ 1.38616 1 0 ack 40 ------- 1 1.0 0.0 26 191
- 1.38616 1 0 ack 40 ------- 1 1.0 0.0 26 191
r 1.388 1 0 ack 40 ------- 2 1.1 0.1 36 188
- 1.38864 0 1 tcp 1040 ------- 1 0.0 1.0 31 175
r 1.39032 0 1 tcp 1040 ------- 1 0.0 1.0 28 169
+ 1.39032 1 0 ack 40 ------- 1 1.0 0.0 26 192
- 1.39032 1 0 ack 40 ------- 1 1.0 0.0 26 192
r 1.39216 1 0 ack 40 ------- 2 1.1 0.1 36 190
+ 1.39216 0 1 tcp 1040 ------- 2 0.1 1.1 45 193
- 1.3928 0 1 tcp 1040 ------- 1 0.0 1.0 33 178
r 1.39448 0 1 tcp 1040 ------- 1 0.0 1.0 29 171
+ 1.39448 1 0 ack 40 ------- 1 1.0 0.0 26 194
- 1.39448 1 0 ack 40 ------- 1 1.0 0.0 26 194
r 1.39632 1 0 ack 40 ------- 1 1.0 0.0 26 191
+ 1.39632 0 1 tcp 1040 ------- 1 0.0 1.0 34 195
- 1.39696 0 1 tcp 1040 ------- 2 0.1 1.1 39 180
r 1.39864 0 1 tcp 1040 ------- 1 0.0 1.0 30 173
+ 1.39864 1 0 ack 40 ------- 1 1.0 0.0 26 196
- 1.39864 1 0 ack 40 ------- 1 1.0 0.0 26 196
r 1.40048 1 0 ack 40 ------- 1 1.0 0.0 26 192
- 1.40112 0 1 tcp 1040 ------- 2 0.1 1.1 40 182
r 1.4028 0 1 tcp 1040 ------- 1 0.0 1.0 31 175
+ 1.4028 1 0 ack 40 ------- 1 1.0 0.0 26 197
- 1.4028 1 0 ack 40 ------- 1 1.0 0.0 26 197
r 1.40464 1 0 ack 40 ------- 1 1.0 0.0 26 194
- 1.40528 0 1 tcp 1040 ------- 2 0.1 1.1 41 184
r 1.40696 0 1 tcp 1040 ------- 1 0.0 1.0 33 178
+ 1.40696 1 0 ack 40 ------- 1 1.0 0.0 26 198
- 1.40696 1 0 ack 40 ------- 1 1.0 0.0 26 198
r 1.4088 1 0 ack 40 ------- 1 1.0 0.0 26 196
- 1.40944 0 1 tcp 1040 ------- 2 0.1 1.1 43 187
r 1.41112 0 1 tcp 1040 ------- 2 0.1 1.1 39 180
+ 1.41112 1 0 ack 40 ------- 2 1.1 0.1 36 199
- 1.41112 1 0 ack 40 ------- 2 1.1 0.1 36 199
r 1.41296 1 0 ack 40 ------- 1 1.0 0.0 26 197
- 1.4136 0 1 tcp 1040 ------- 2 0.1 1.1 44 189
r 1.41528 0 1 tcp 1040 ------- 2 0.1 1.1 40 182
+ 1.41528 1 0 ack 40 ------- 2 1.1 0.1 36 200
- 1.41528 1 0 ack 40 ------- 2 1.1 0.1 36 200
r 1.41712 1 0 ack 40 ------- 1 1.0 0.0 26 198
- 1.41776 0 1 tcp 1040 ------- 2 0.1 1.1 45 193
r 1.41944 0 1 tcp 1040 ------- 2 0.1 1.1 41 184
+ 1.41944 1 0 ack 40 ------- 2 1.1 0.1 36 201
- 1.41944 1 0 ack 40 ------- 2 1.1 0.1 36 201
r 1.42128 1 0 ack 40 ------- 2 1.1 0.1 36 199
+ 1.42128 0 1 tcp 1040 ------- 2 0.1 1.1 46 202
- 1.42192 0 1 tcp 1040 ------- 1 0.0 1.0 34 195
r 1.4236 0 1 tcp 1040 ------- 2 0.1 1.1 43 187
+ 1.4236 1 0 ack 40 ------- 2 1.1 0.1 36 203
- 1.4236 1 0 ack 40 ------- 2 1.1 0.1 36 203
r 1.42544 1 0 ack 40 ------- 2 1.1 0.1 36 200
+ 1.42544 0 1 tcp 1040 ---A--- 2 0.1 1.1 37 204
- 1.42608 0 1 tcp 1040 ------- 2 0.1 1.1 46 202
r 1.42776 0 1 tcp 1040 ------- 2 0.1 1.1 44 189
+ 1.42776 1 0 ack 40 ------- 2 1.1 0.1 36 205
- 1.42776 1 0 ack 40 ------- 2 1.1 0.1 36 205
r 1.4296 1 0 ack 40 ------- 2 1.1 0.1 36 201
- 1.43024 0 1 tcp 1040 ---A--- 2 0.1 1.1 37 204
r 1.43192 0 1 tcp 1040 ------- 2 0.1 1.1 45 193
+ 1.43192 1 0 ack 40 ------- 2 1.1 0.1 36 206
- 1.43192 1 0 ack 40 ------- 2 1.1 0.1 36 206
r 1.43376 1 0 ack 40 ------- 2 1.1 0.1 36 203
r 1.43608 0 1 tcp 1040 ------- 1 0.0 1.0 34 195
+ 1.43608 1 0 ack 40 ------- 1 1.0 0.0 26 207
- 1.43608 1 0 ack 40 ------- 1 1.0 0.0 26 207
r 1.43792 1 0 ack 40 ------- 2 1.1 0.1 36 205
r 1.44024 0 1 tcp 1040 ------- 2 0.1 1.1 46 202
+ 1.44024 1 0 ack 40 ------- 2 1.1 0.1 36 208
- 1.44024 1 0 ack 40 ------- 2 1.1 0.1 36 208
r 1.44208 1 0 ack 40 ------- 2 1.1 0.1 36 206
r 1.4444 0 1 tcp 1040 ---A--- 2 0.1 1.1 37 204
+ 1.4444 1 0 ack 40 ------- 2 1.1 0.1 41 209
- 1.4444 1 0 ack 40 ------- 2 1.1 0.1 41 209
r 1.44624 1 0 ack 40 ------- 1 1.0 0.0 26 207
r 1.4504 1 0 ack 40 ------- 2 1.1 0.1 36 208
r 1.45456 1 0 ack 40 ------- 2 1.1 0.1 41 209
+ 1.45456 0 1 tcp 1040 ------- 2 0.1 1.1 42 210
- 1.45456 0 1 tcp 1040 ------- 2 0.1 1.1 42 210
+ 1.45456 0 1 tcp 1040 ------- 2 0.1 1.1 43 211
- 1.45872 0 1 tcp 1040 ------- 2 0.1 1.1 43 211
r 1.46872 0 1 tcp 1040 ------- 2 0.1 1.1 42 210
+ 1.46872 1 0 ack 40 ------- 2 1.1 0.1 46 212
- 1.46872 1 0 ack 40 ------- 2 1.1 0.1 46 212
r 1.47288 0 1 tcp 1040 ------- 2 0.1 1.1 43 211
+ 1.47288 1 0 ack 40 ------- 2 1.1 0.1 46 213
- 1.47288 1 0 ack 40 ------- 2 1.1 0.1 46 213
r 1.47888 1 0 ack 40 ------- 2 1.1 0.1 46 212
+ 1.47888 0 1 tcp 1040 ------- 2 0.1 1.1 47 214
- 1.47888 0 1 tcp 1040 ------- 2 0.1 1.1 47 214
+ 1.47888 0 1 tcp 1040 ------- 2 0.1 1.1 48 215
+ 1.47888 0 1 tcp 1040 ------- 2 0.1 1.1 49 216
r 1.48304 1 0 ack 40 ------- 2 1.1 0.1 46 213
+ 1.48304 0 1 tcp 1040 ------- 2 0.1 1.1 50 217
- 1.48304 0 1 tcp 1040 ------- 2 0.1 1.1 48 215
- 1.4872 0 1 tcp 1040 ------- 2 0.1 1.1 49 216
- 1.49136 0 1 tcp 1040 ------- 2 0.1 1.1 50 217
r 1.49304 0 1 tcp 1040 ------- 2 0.1 1.1 47 214
+ 1.49304 1 0 ack 40 ------- 2 1.1 0.1 47 218
- 1.49304 1 0 ack 40 ------- 2 1.1 0.1 47 218
r 1.4972 0 1 tcp 1040 ------- 2 0.1 1.1 48 215
+ 1.4972 1 0 ack 40 ------- 2 1.1 0.1 48 219
- 1.4972 1 0 ack 40 ------- 2 1.1 0.1 48 219
r 1.50136 0 1 tcp 1040 ------- 2 0.1 1.1 49 216
+ 1.50136 1 0 ack 40 ------- 2 1.1 0.1 49 220
- 1.50136 1 0 ack 40 ------- 2 1.1 0.1 49 220
r 1.5032 1 0 ack 40 ------- 2 1.1 0.1 47 218
+ 1.5032 0 1 tcp 1040 ------- 2 0.1 1.1 51 221
- 1.5032 0 1 tcp 1040 ------- 2 0.1 1.1 51 221
r 1.50552 0 1 tcp 1040 ------- 2 0.1 1.1 50 217
+ 1.50552 1 0 ack 40 ------- 2 1.1 0.1 50 222
- 1.50552 1 0 ack 40 ------- 2 1.1 0.1 50 222
r 1.50736 1 0 ack 40 ------- 2 1.1 0.1 48 219
+ 1.50736 0 1 tcp 1040 ------- 2 0.1 1.1 52 223
- 1.50736 0 1 tcp 1040 ------- 2 0.1 1.1 52 223
r 1.51152 1 0 ack 40 ------- 2 1.1 0.1 49 220
+ 1.51152 0 1 tcp 1040 ------- 2 0.1 1.1 53 224