+ 0.00034 2 0 tcp 40 ------- 0 2.0 3.0 0 0
- 0.00034 2 0 tcp 40 ------- 0 2.0 3.0 0 0
r 0.001372 2 0 tcp 40 ------- 0 2.0 3.0 0 0
+ 0.001372 0 1 tcp 40 ------- 0 2.0 3.0 0 0
- 0.001372 0 1 tcp 40 ------- 0 2.0 3.0 0 0
r 0.011692 0 1 tcp 40 ------- 0 2.0 3.0 0 0
+ 0.011692 1 3 tcp 40 ------- 0 2.0 3.0 0 0
- 0.011692 1 3 tcp 40 ------- 0 2.0 3.0 0 0
r 0.012724 1 3 tcp 40 ------- 0 2.0 3.0 0 0
+ 0.012724 3 1 ack 40 ------- 0 3.0 2.0 0 1
- 0.012724 3 1 ack 40 ------- 0 3.0 2.0 0 1
r 0.013756 3 1 ack 40 ------- 0 3.0 2.0 0 1
+ 0.013756 1 0 ack 40 ------- 0 3.0 2.0 0 1
- 0.013756 1 0 ack 40 ------- 0 3.0 2.0 0 1
+ 0.014205 6 0 tcp 40 ------- 0 6.0 7.0 0 2
- 0.014205 6 0 tcp 40 ------- 0 6.0 7.0 0 2
r 0.015237 6 0 tcp 40 ------- 0 6.0 7.0 0 2
+ 0.015237 0 1 tcp 40 ------- 0 6.0 7.0 0 2
- 0.015237 0 1 tcp 40 ------- 0 6.0 7.0 0 2
r 0.024076 1 0 ack 40 ------- 0 3.0 2.0 0 1
+ 0.024076 0 2 ack 40 ------- 0 3.0 2.0 0 1
- 0.024076 0 2 ack 40 ------- 0 3.0 2.0 0 1
r 0.025108 0 2 ack 40 ------- 0 3.0 2.0 0 1
+ 0.025108 2 0 tcp 1040 ------- 0 2.0 3.0 1 3
- 0.025108 2 0 tcp 1040 ------- 0 2.0 3.0 1 3
+ 0.025108 2 0 tcp 1040 ------- 0 2.0 3.0 2 4
r 0.025557 0 1 tcp 40 ------- 0 6.0 7.0 0 2
+ 0.025557 1 7 tcp 40 ------- 0 6.0 7.0 0 2
- 0.025557 1 7 tcp 40 ------- 0 6.0 7.0 0 2
- 0.02594 2 0 tcp 1040 ------- 0 2.0 3.0 2 4
r 0.026589 1 7 tcp 40 ------- 0 6.0 7.0 0 2
+ 0.026589 7 1 ack 40 ------- 0 7.0 6.0 0 5
- 0.026589 7 1 ack 40 ------- 0 7.0 6.0 0 5
r 0.02694 2 0 tcp 1040 ------- 0 2.0 3.0 1 3
+ 0.02694 0 1 tcp 1040 ------- 0 2.0 3.0 1 3
- 0.02694 0 1 tcp 1040 ------- 0 2.0 3.0 1 3
r 0.027621 7 1 ack 40 ------- 0 7.0 6.0 0 5
+ 0.027621 1 0 ack 40 ------- 0 7.0 6.0 0 5
- 0.027621 1 0 ack 40 ------- 0 7.0 6.0 0 5
r 0.027772 2 0 tcp 1040 ------- 0 2.0 3.0 2 4
+ 0.027772 0 1 tcp 1040 ------- 0 2.0 3.0 2 4
- 0.03526 0 1 tcp 1040 ------- 0 2.0 3.0 2 4
r 0.037941 1 0 ack 40 ------- 0 7.0 6.0 0 5
+ 0.037941 0 6 ack 40 ------- 0 7.0 6.0 0 5
- 0.037941 0 6 ack 40 ------- 0 7.0 6.0 0 5
r 0.038973 0 6 ack 40 ------- 0 7.0 6.0 0 5
+ 0.038973 6 0 tcp 1040 ------- 0 6.0 7.0 1 6
- 0.038973 6 0 tcp 1040 ------- 0 6.0 7.0 1 6
+ 0.038973 6 0 tcp 1040 ------- 0 6.0 7.0 2 7
- 0.039805 6 0 tcp 1040 ------- 0 6.0 7.0 2 7
r 0.040805 6 0 tcp 1040 ------- 0 6.0 7.0 1 6
+ 0.040805 0 1 tcp 1040 ------- 0 6.0 7.0 1 6
r 0.041637 6 0 tcp 1040 ------- 0 6.0 7.0 2 7
+ 0.041637 0 1 tcp 1040 ------- 0 6.0 7.0 2 7
- 0.04358 0 1 tcp 1040 ------- 0 6.0 7.0 1 6
r 0.04526 0 1 tcp 1040 ------- 0 2.0 3.0 1 3
+ 0.04526 1 3 tcp 1040 ------- 0 2.0 3.0 1 3
- 0.04526 1 3 tcp 1040 ------- 0 2.0 3.0 1 3
r 0.047092 1 3 tcp 1040 ------- 0 2.0 3.0 1 3
+ 0.047092 3 1 ack 40 ------- 0 3.0 2.0 1 8
- 0.047092 3 1 ack 40 ------- 0 3.0 2.0 1 8
r 0.048124 3 1 ack 40 ------- 0 3.0 2.0 1 8
+ 0.048124 1 0 ack 40 ------- 0 3.0 2.0 1 8
- 0.048124 1 0 ack 40 ------- 0 3.0 2.0 1 8
- 0.0519 0 1 tcp 1040 ------- 0 6.0 7.0 2 7
r 0.05358 0 1 tcp 1040 ------- 0 2.0 3.0 2 4
+ 0.05358 1 3 tcp 1040 ------- 0 2.0 3.0 2 4
- 0.05358 1 3 tcp 1040 ------- 0 2.0 3.0 2 4
r 0.055412 1 3 tcp 1040 ------- 0 2.0 3.0 2 4
+ 0.055412 3 1 ack 40 ------- 0 3.0 2.0 2 9
- 0.055412 3 1 ack 40 ------- 0 3.0 2.0 2 9
r 0.056444 3 1 ack 40 ------- 0 3.0 2.0 2 9
+ 0.056444 1 0 ack 40 ------- 0 3.0 2.0 2 9
- 0.056444 1 0 ack 40 ------- 0 3.0 2.0 2 9
r 0.058444 1 0 ack 40 ------- 0 3.0 2.0 1 8
+ 0.058444 0 2 ack 40 ------- 0 3.0 2.0 1 8
- 0.058444 0 2 ack 40 ------- 0 3.0 2.0 1 8
r 0.059476 0 2 ack 40 ------- 0 3.0 2.0 1 8
+ 0.059476 2 0 tcp 1040 ------- 0 2.0 3.0 3 10
- 0.059476 2 0 tcp 1040 ------- 0 2.0 3.0 3 10
+ 0.059476 2 0 tcp 1040 ------- 0 2.0 3.0 4 11
- 0.060308 2 0 tcp 1040 ------- 0 2.0 3.0 4 11
r 0.061308 2 0 tcp 1040 ------- 0 2.0 3.0 3 10
+ 0.061308 0 1 tcp 1040 ------- 0 2.0 3.0 3 10
- 0.061308 0 1 tcp 1040 ------- 0 2.0 3.0 3 10
r 0.0619 0 1 tcp 1040 ------- 0 6.0 7.0 1 6
+ 0.0619 1 7 tcp 1040 ------- 0 6.0 7.0 1 6
- 0.0619 1 7 tcp 1040 ------- 0 6.0 7.0 1 6
r 0.06214 2 0 tcp 1040 ------- 0 2.0 3.0 4 11
+ 0.06214 0 1 tcp 1040 ------- 0 2.0 3.0 4 11
r 0.063732 1 7 tcp 1040 ------- 0 6.0 7.0 1 6
+ 0.063732 7 1 ack 40 ------- 0 7.0 6.0 1 12
- 0.063732 7 1 ack 40 ------- 0 7.0 6.0 1 12
r 0.064764 7 1 ack 40 ------- 0 7.0 6.0 1 12
+ 0.064764 1 0 ack 40 ------- 0 7.0 6.0 1 12
- 0.064764 1 0 ack 40 ------- 0 7.0 6.0 1 12
r 0.066764 1 0 ack 40 ------- 0 3.0 2.0 2 9
+ 0.066764 0 2 ack 40 ------- 0 3.0 2.0 2 9
- 0.066764 0 2 ack 40 ------- 0 3.0 2.0 2 9
r 0.067796 0 2 ack 40 ------- 0 3.0 2.0 2 9
+ 0.067796 2 0 tcp 1040 ------- 0 2.0 3.0 5 13
- 0.067796 2 0 tcp 1040 ------- 0 2.0 3.0 5 13
+ 0.067796 2 0 tcp 1040 ------- 0 2.0 3.0 6 14
- 0.068628 2 0 tcp 1040 ------- 0 2.0 3.0 6 14
- 0.069628 0 1 tcp 1040 ------- 0 2.0 3.0 4 11
r 0.069628 2 0 tcp 1040 ------- 0 2.0 3.0 5 13
+ 0.069628 0 1 tcp 1040 ------- 0 2.0 3.0 5 13
r 0.07022 0 1 tcp 1040 ------- 0 6.0 7.0 2 7
+ 0.07022 1 7 tcp 1040 ------- 0 6.0 7.0 2 7
- 0.07022 1 7 tcp 1040 ------- 0 6.0 7.0 2 7
r 0.07046 2 0 tcp 1040 ------- 0 2.0 3.0 6 14
+ 0.07046 0 1 tcp 1040 ------- 0 2.0 3.0 6 14
r 0.072052 1 7 tcp 1040 ------- 0 6.0 7.0 2 7
+ 0.072052 7 1 ack 40 ------- 0 7.0 6.0 2 15
- 0.072052 7 1 ack 40 ------- 0 7.0 6.0 2 15
r 0.073084 7 1 ack 40 ------- 0 7.0 6.0 2 15
+ 0.073084 1 0 ack 40 ------- 0 7.0 6.0 2 15
- 0.073084 1 0 ack 40 ------- 0 7.0 6.0 2 15
r 0.075084 1 0 ack 40 ------- 0 7.0 6.0 1 12
+ 0.075084 0 6 ack 40 ------- 0 7.0 6.0 1 12
- 0.075084 0 6 ack 40 ------- 0 7.0 6.0 1 12
r 0.076116 0 6 ack 40 ------- 0 7.0 6.0 1 12
+ 0.076116 6 0 tcp 1040 ------- 0 6.0 7.0 3 16
- 0.076116 6 0 tcp 1040 ------- 0 6.0 7.0 3 16
+ 0.076116 6 0 tcp 1040 ------- 0 6.0 7.0 4 17
- 0.076948 6 0 tcp 1040 ------- 0 6.0 7.0 4 17
- 0.077948 0 1 tcp 1040 ------- 0 2.0 3.0 5 13
r 0.077948 6 0 tcp 1040 ------- 0 6.0 7.0 3 16
+ 0.077948 0 1 tcp 1040 ------- 0 6.0 7.0 3 16
r 0.07878 6 0 tcp 1040 ------- 0 6.0 7.0 4 17
+ 0.07878 0 1 tcp 1040 ------- 0 6.0 7.0 4 17
r 0.079628 0 1 tcp 1040 ------- 0 2.0 3.0 3 10
+ 0.079628 1 3 tcp 1040 ------- 0 2.0 3.0 3 10
- 0.079628 1 3 tcp 1040 ------- 0 2.0 3.0 3 10
r 0.08146 1 3 tcp 1040 ------- 0 2.0 3.0 3 10
+ 0.08146 3 1 ack 40 ------- 0 3.0 2.0 3 18
- 0.08146 3 1 ack 40 ------- 0 3.0 2.0 3 18
r 0.082492 3 1 ack 40 ------- 0 3.0 2.0 3 18
+ 0.082492 1 0 ack 40 ------- 0 3.0 2.0 3 18
- 0.082492 1 0 ack 40 ------- 0 3.0 2.0 3 18
r 0.083404 1 0 ack 40 ------- 0 7.0 6.0 2 15
+ 0.083404 0 6 ack 40 ------- 0 7.0 6.0 2 15
- 0.083404 0 6 ack 40 ------- 0 7.0 6.0 2 15
r 0.084436 0 6 ack 40 ------- 0 7.0 6.0 2 15
+ 0.084436 6 0 tcp 1040 ------- 0 6.0 7.0 5 19
- 0.084436 6 0 tcp 1040 ------- 0 6.0 7.0 5 19
+ 0.084436 6 0 tcp 1040 ------- 0 6.0 7.0 6 20
- 0.085268 6 0 tcp 1040 ------- 0 6.0 7.0 6 20
- 0.086268 0 1 tcp 1040 ------- 0 2.0 3.0 6 14
r 0.086268 6 0 tcp 1040 ------- 0 6.0 7.0 5 19
+ 0.086268 0 1 tcp 1040 ------- 0 6.0 7.0 5 19
r 0.0871 6 0 tcp 1040 ------- 0 6.0 7.0 6 20
+ 0.0871 0 1 tcp 1040 ------- 0 6.0 7.0 6 20
r 0.087948 0 1 tcp 1040 ------- 0 2.0 3.0 4 11
+ 0.087948 1 3 tcp 1040 ------- 0 2.0 3.0 4 11
- 0.087948 1 3 tcp 1040 ------- 0 2.0 3.0 4 11
+ 0.088123 8 0 tcp 40 ------- 0 8.0 9.0 0 21
- 0.088123 8 0 tcp 40 ------- 0 8.0 9.0 0 21
r 0.089155 8 0 tcp 40 ------- 0 8.0 9.0 0 21
+ 0.089155 0 1 tcp 40 ------- 0 8.0 9.0 0 21
r 0.08978 1 3 tcp 1040 ------- 0 2.0 3.0 4 11
+ 0.08978 3 1 ack 40 ------- 0 3.0 2.0 4 22
- 0.08978 3 1 ack 40 ------- 0 3.0 2.0 4 22
r 0.090812 3 1 ack 40 ------- 0 3.0 2.0 4 22
+ 0.090812 1 0 ack 40 ------- 0 3.0 2.0 4 22
- 0.090812 1 0 ack 40 ------- 0 3.0 2.0 4 22
r 0.092812 1 0 ack 40 ------- 0 3.0 2.0 3 18
+ 0.092812 0 2 ack 40 ------- 0 3.0 2.0 3 18
- 0.092812 0 2 ack 40 ------- 0 3.0 2.0 3 18
r 0.093844 0 2 ack 40 ------- 0 3.0 2.0 3 18
+ 0.093844 2 0 tcp 1040 ------- 0 2.0 3.0 7 23
- 0.093844 2 0 tcp 1040 ------- 0 2.0 3.0 7 23
+ 0.093844 2 0 tcp 1040 ------- 0 2.0 3.0 8 24
- 0.094588 0 1 tcp 1040 ------- 0 6.0 7.0 3 16
- 0.094676 2 0 tcp 1040 ------- 0 2.0 3.0 8 24
r 0.095676 2 0 tcp 1040 ------- 0 2.0 3.0 7 23
+ 0.095676 0 1 tcp 1040 ------- 0 2.0 3.0 7 23
r 0.096268 0 1 tcp 1040 ------- 0 2.0 3.0 5 13
+ 0.096268 1 3 tcp 1040 ------- 0 2.0 3.0 5 13
- 0.096268 1 3 tcp 1040 ------- 0 2.0 3.0 5 13
r 0.096508 2 0 tcp 1040 ------- 0 2.0 3.0 8 24
+ 0.096508 0 1 tcp 1040 ------- 0 2.0 3.0 8 24
r 0.0981 1 3 tcp 1040 ------- 0 2.0 3.0 5 13
+ 0.0981 3 1 ack 40 ------- 0 3.0 2.0 5 25
- 0.0981 3 1 ack 40 ------- 0 3.0 2.0 5 25
r 0.099132 3 1 ack 40 ------- 0 3.0 2.0 5 25
+ 0.099132 1 0 ack 40 ------- 0 3.0 2.0 5 25
- 0.099132 1 0 ack 40 ------- 0 3.0 2.0 5 25
r 0.101132 1 0 ack 40 ------- 0 3.0 2.0 4 22
+ 0.101132 0 2 ack 40 ------- 0 3.0 2.0 4 22
- 0.101132 0 2 ack 40 ------- 0 3.0 2.0 4 22
r 0.102164 0 2 ack 40 ------- 0 3.0 2.0 4 22
+ 0.102164 2 0 tcp 1040 ------- 0 2.0 3.0 9 26
- 0.102164 2 0 tcp 1040 ------- 0 2.0 3.0 9 26
+ 0.102164 2 0 tcp 1040 ------- 0 2.0 3.0 10 27
- 0.102908 0 1 tcp 1040 ------- 0 6.0 7.0 4 17
- 0.102996 2 0 tcp 1040 ------- 0 2.0 3.0 10 27
r 0.103996 2 0 tcp 1040 ------- 0 2.0 3.0 9 26
+ 0.103996 0 1 tcp 1040 ------- 0 2.0 3.0 9 26
r 0.104588 0 1 tcp 1040 ------- 0 2.0 3.0 6 14
+ 0.104588 1 3 tcp 1040 ------- 0 2.0 3.0 6 14
- 0.104588 1 3 tcp 1040 ------- 0 2.0 3.0 6 14
r 0.104828 2 0 tcp 1040 ------- 0 2.0 3.0 10 27
+ 0.104828 0 1 tcp 1040 ------- 0 2.0 3.0 10 27
r 0.10642 1 3 tcp 1040 ------- 0 2.0 3.0 6 14
+ 0.10642 3 1 ack 40 ------- 0 3.0 2.0 6 28
- 0.10642 3 1 ack 40 ------- 0 3.0 2.0 6 28
r 0.107452 3 1 ack 40 ------- 0 3.0 2.0 6 28
+ 0.107452 1 0 ack 40 ------- 0 3.0 2.0 6 28
- 0.107452 1 0 ack 40 ------- 0 3.0 2.0 6 28
r 0.109452 1 0 ack 40 ------- 0 3.0 2.0 5 25
+ 0.109452 0 2 ack 40 ------- 0 3.0 2.0 5 25
- 0.109452 0 2 ack 40 ------- 0 3.0 2.0 5 25
r 0.110484 0 2 ack 40 ------- 0 3.0 2.0 5 25
+ 0.110484 2 0 tcp 1040 ------- 0 2.0 3.0 11 29
- 0.110484 2 0 tcp 1040 ------- 0 2.0 3.0 11 29
+ 0.110484 2 0 tcp 1040 ------- 0 2.0 3.0 12 30
- 0.111228 0 1 tcp 1040 ------- 0 6.0 7.0 5 19
- 0.111316 2 0 tcp 1040 ------- 0 2.0 3.0 12 30
r 0.112316 2 0 tcp 1040 ------- 0 2.0 3.0 11 29
+ 0.112316 0 1 tcp 1040 ------- 0 2.0 3.0 11 29
r 0.112908 0 1 tcp 1040 ------- 0 6.0 7.0 3 16
+ 0.112908 1 7 tcp 1040 ------- 0 6.0 7.0 3 16
- 0.112908 1 7 tcp 1040 ------- 0 6.0 7.0 3 16
r 0.113148 2 0 tcp 1040 ------- 0 2.0 3.0 12 30
+ 0.113148 0 1 tcp 1040 ------- 0 2.0 3.0 12 30
r 0.11474 1 7 tcp 1040 ------- 0 6.0 7.0 3 16
+ 0.11474 7 1 ack 40 ------- 0 7.0 6.0 3 31
- 0.11474 7 1 ack 40 ------- 0 7.0 6.0 3 31
r 0.115772 7 1 ack 40 ------- 0 7.0 6.0 3 31
+ 0.115772 1 0 ack 40 ------- 0 7.0 6.0 3 31
- 0.115772 1 0 ack 40 ------- 0 7.0 6.0 3 31
r 0.117772 1 0 ack 40 ------- 0 3.0 2.0 6 28
+ 0.117772 0 2 ack 40 ------- 0 3.0 2.0 6 28
- 0.117772 0 2 ack 40 ------- 0 3.0 2.0 6 28
r 0.118804 0 2 ack 40 ------- 0 3.0 2.0 6 28
+ 0.118804 2 0 tcp 1040 ------- 0 2.0 3.0 13 32
- 0.118804 2 0 tcp 1040 ------- 0 2.0 3.0 13 32
+ 0.118804 2 0 tcp 1040 ------- 0 2.0 3.0 14 33
- 0.119548 0 1 tcp 1040 ------- 0 6.0 7.0 6 20
- 0.119636 2 0 tcp 1040 ------- 0 2.0 3.0 14 33
r 0.120636 2 0 tcp 1040 ------- 0 2.0 3.0 13 32
+ 0.120636 0 1 tcp 1040 ------- 0 2.0 3.0 13 32
r 0.121228 0 1 tcp 1040 ------- 0 6.0 7.0 4 17
+ 0.121228 1 7 tcp 1040 ------- 0 6.0 7.0 4 17
- 0.121228 1 7 tcp 1040 ------- 0 6.0 7.0 4 17
r 0.121468 2 0 tcp 1040 ------- 0 2.0 3.0 14 33
+ 0.121468 0 1 tcp 1040 ------- 0 2.0 3.0 14 33
r 0.12306 1 7 tcp 1040 ------- 0 6.0 7.0 4 17
+ 0.12306 7 1 ack 40 ------- 0 7.0 6.0 4 34
- 0.12306 7 1 ack 40 ------- 0 7.0 6.0 4 34
r 0.124092 7 1 ack 40 ------- 0 7.0 6.0 4 34
+ 0.124092 1 0 ack 40 ------- 0 7.0 6.0 4 34
- 0.124092 1 0 ack 40 ------- 0 7.0 6.0 4 34
r 0.126092 1 0 ack 40 ------- 0 7.0 6.0 3 31
+ 0.126092 0 6 ack 40 ------- 0 7.0 6.0 3 31
- 0.126092 0 6 ack 40 ------- 0 7.0 6.0 3 31
r 0.127124 0 6 ack 40 ------- 0 7.0 6.0 3 31
+ 0.127124 6 0 tcp 1040 ------- 0 6.0 7.0 7 35
- 0.127124 6 0 tcp 1040 ------- 0 6.0 7.0 7 35
+ 0.127124 6 0 tcp 1040 ------- 0 6.0 7.0 8 36
- 0.127868 0 1 tcp 40 ------- 0 8.0 9.0 0 21
- 0.127956 6 0 tcp 1040 ------- 0 6.0 7.0 8 36
- 0.128188 0 1 tcp 1040 ------- 0 2.0 3.0 7 23
r 0.128956 6 0 tcp 1040 ------- 0 6.0 7.0 7 35
+ 0.128956 0 1 tcp 1040 ------- 0 6.0 7.0 7 35
r 0.129548 0 1 tcp 1040 ------- 0 6.0 7.0 5 19
+ 0.129548 1 7 tcp 1040 ------- 0 6.0 7.0 5 19
- 0.129548 1 7 tcp 1040 ------- 0 6.0 7.0 5 19
r 0.129788 6 0 tcp 1040 ------- 0 6.0 7.0 8 36
+ 0.129788 0 1 tcp 1040 ------- 0 6.0 7.0 8 36
r 0.13138 1 7 tcp 1040 ------- 0 6.0 7.0 5 19
+ 0.13138 7 1 ack 40 ------- 0 7.0 6.0 5 37
- 0.13138 7 1 ack 40 ------- 0 7.0 6.0 5 37
r 0.132412 7 1 ack 40 ------- 0 7.0 6.0 5 37
+ 0.132412 1 0 ack 40 ------- 0 7.0 6.0 5 37
- 0.132412 1 0 ack 40 ------- 0 7.0 6.0 5 37
r 0.134412 1 0 ack 40 ------- 0 7.0 6.0 4 34
+ 0.134412 0 6 ack 40 ------- 0 7.0 6.0 4 34
- 0.134412 0 6 ack 40 ------- 0 7.0 6.0 4 34
r 0.135444 0 6 ack 40 ------- 0 7.0 6.0 4 34
+ 0.135444 6 0 tcp 1040 ------- 0 6.0 7.0 9 38
- 0.135444 6 0 tcp 1040 ------- 0 6.0 7.0 9 38
+ 0.135444 6 0 tcp 1040 ------- 0 6.0 7.0 10 39
- 0.136276 6 0 tcp 1040 ------- 0 6.0 7.0 10 39
- 0.136508 0 1 tcp 1040 ------- 0 2.0 3.0 8 24
r 0.137276 6 0 tcp 1040 ------- 0 6.0 7.0 9 38
+ 0.137276 0 1 tcp 1040 ------- 0 6.0 7.0 9 38
r 0.137868 0 1 tcp 1040 ------- 0 6.0 7.0 6 20
+ 0.137868 1 7 tcp 1040 ------- 0 6.0 7.0 6 20
- 0.137868 1 7 tcp 1040 ------- 0 6.0 7.0 6 20
r 0.138108 6 0 tcp 1040 ------- 0 6.0 7.0 10 39
+ 0.138108 0 1 tcp 1040 ------- 0 6.0 7.0 10 39
r 0.138188 0 1 tcp 40 ------- 0 8.0 9.0 0 21
+ 0.138188 1 9 tcp 40 ------- 0 8.0 9.0 0 21
- 0.138188 1 9 tcp 40 ------- 0 8.0 9.0 0 21
r 0.13922 1 9 tcp 40 ------- 0 8.0 9.0 0 21
+ 0.13922 9 1 ack 40 ------- 0 9.0 8.0 0 40
- 0.13922 9 1 ack 40 ------- 0 9.0 8.0 0 40
r 0.1397 1 7 tcp 1040 ------- 0 6.0 7.0 6 20
+ 0.1397 7 1 ack 40 ------- 0 7.0 6.0 6 41
- 0.1397 7 1 ack 40 ------- 0 7.0 6.0 6 41
r 0.140252 9 1 ack 40 ------- 0 9.0 8.0 0 40
+ 0.140252 1 0 ack 40 ------- 0 9.0 8.0 0 40
- 0.140252 1 0 ack 40 ------- 0 9.0 8.0 0 40
r 0.140732 7 1 ack 40 ------- 0 7.0 6.0 6 41
+ 0.140732 1 0 ack 40 ------- 0 7.0 6.0 6 41
- 0.140732 1 0 ack 40 ------- 0 7.0 6.0 6 41
r 0.142732 1 0 ack 40 ------- 0 7.0 6.0 5 37
+ 0.142732 0 6 ack 40 ------- 0 7.0 6.0 5 37
- 0.142732 0 6 ack 40 ------- 0 7.0 6.0 5 37
r 0.143764 0 6 ack 40 ------- 0 7.0 6.0 5 37
+ 0.143764 6 0 tcp 1040 ------- 0 6.0 7.0 11 42
- 0.143764 6 0 tcp 1040 ------- 0 6.0 7.0 11 42
+ 0.143764 6 0 tcp 1040 ------- 0 6.0 7.0 12 43
- 0.144596 6 0 tcp 1040 ------- 0 6.0 7.0 12 43
- 0.144828 0 1 tcp 1040 ------- 0 2.0 3.0 9 26
r 0.145596 6 0 tcp 1040 ------- 0 6.0 7.0 11 42
+ 0.145596 0 1 tcp 1040 ------- 0 6.0 7.0 11 42
r 0.146428 6 0 tcp 1040 ------- 0 6.0 7.0 12 43
+ 0.146428 0 1 tcp 1040 ------- 0 6.0 7.0 12 43
r 0.146508 0 1 tcp 1040 ------- 0 2.0 3.0 7 23
+ 0.146508 1 3 tcp 1040 ------- 0 2.0 3.0 7 23
- 0.146508 1 3 tcp 1040 ------- 0 2.0 3.0 7 23
r 0.14834 1 3 tcp 1040 ------- 0 2.0 3.0 7 23
+ 0.14834 3 1 ack 40 ------- 0 3.0 2.0 7 44
- 0.14834 3 1 ack 40 ------- 0 3.0 2.0 7 44
r 0.149372 3 1 ack 40 ------- 0 3.0 2.0 7 44
+ 0.149372 1 0 ack 40 ------- 0 3.0 2.0 7 44
- 0.149372 1 0 ack 40 ------- 0 3.0 2.0 7 44
r 0.150572 1 0 ack 40 ------- 0 9.0 8.0 0 40
+ 0.150572 0 8 ack 40 ------- 0 9.0 8.0 0 40
- 0.150572 0 8 ack 40 ------- 0 9.0 8.0 0 40
r 0.151052 1 0 ack 40 ------- 0 7.0 6.0 6 41
+ 0.151052 0 6 ack 40 ------- 0 7.0 6.0 6 41
- 0.151052 0 6 ack 40 ------- 0 7.0 6.0 6 41
r 0.151604 0 8 ack 40 ------- 0 9.0 8.0 0 40
+ 0.151604 8 0 tcp 1040 ------- 0 8.0 9.0 1 45
- 0.151604 8 0 tcp 1040 ------- 0 8.0 9.0 1 45
+ 0.151604 8 0 tcp 1040 ------- 0 8.0 9.0 2 46
r 0.152084 0 6 ack 40 ------- 0 7.0 6.0 6 41
+ 0.152084 6 0 tcp 1040 ------- 0 6.0 7.0 13 47
- 0.152084 6 0 tcp 1040 ------- 0 6.0 7.0 13 47
+ 0.152084 6 0 tcp 1040 ------- 0 6.0 7.0 14 48
- 0.152436 8 0 tcp 1040 ------- 0 8.0 9.0 2 46
- 0.152916 6 0 tcp 1040 ------- 0 6.0 7.0 14 48
- 0.153148 0 1 tcp 1040 ------- 0 2.0 3.0 10 27
r 0.153436 8 0 tcp 1040 ------- 0 8.0 9.0 1 45
+ 0.153436 0 1 tcp 1040 ------- 0 8.0 9.0 1 45
r 0.153916 6 0 tcp 1040 ------- 0 6.0 7.0 13 47
+ 0.153916 0 1 tcp 1040 ------- 0 6.0 7.0 13 47
r 0.154268 8 0 tcp 1040 ------- 0 8.0 9.0 2 46
+ 0.154268 0 1 tcp 1040 ------- 0 8.0 9.0 2 46
r 0.154748 6 0 tcp 1040 ------- 0 6.0 7.0 14 48
+ 0.154748 0 1 tcp 1040 ------- 0 6.0 7.0 14 48
r 0.154828 0 1 tcp 1040 ------- 0 2.0 3.0 8 24
+ 0.154828 1 3 tcp 1040 ------- 0 2.0 3.0 8 24
- 0.154828 1 3 tcp 1040 ------- 0 2.0 3.0 8 24
r 0.15666 1 3 tcp 1040 ------- 0 2.0 3.0 8 24
+ 0.15666 3 1 ack 40 ------- 0 3.0 2.0 8 49
- 0.15666 3 1 ack 40 ------- 0 3.0 2.0 8 49
r 0.157692 3 1 ack 40 ------- 0 3.0 2.0 8 49
+ 0.157692 1 0 ack 40 ------- 0 3.0 2.0 8 49
- 0.157692 1 0 ack 40 ------- 0 3.0 2.0 8 49
r 0.159692 1 0 ack 40 ------- 0 3.0 2.0 7 44
+ 0.159692 0 2 ack 40 ------- 0 3.0 2.0 7 44
- 0.159692 0 2 ack 40 ------- 0 3.0 2.0 7 44
r 0.160724 0 2 ack 40 ------- 0 3.0 2.0 7 44
+ 0.160724 2 0 tcp 1040 ------- 0 2.0 3.0 15 50
- 0.160724 2 0 tcp 1040 ------- 0 2.0 3.0 15 50
+ 0.160724 2 0 tcp 1040 ------- 0 2.0 3.0 16 51
- 0.161468 0 1 tcp 1040 ------- 0 2.0 3.0 11 29
- 0.161556 2 0 tcp 1040 ------- 0 2.0 3.0 16 51
r 0.162556 2 0 tcp 1040 ------- 0 2.0 3.0 15 50
+ 0.162556 0 1 tcp 1040 ------- 0 2.0 3.0 15 50
r 0.163148 0 1 tcp 1040 ------- 0 2.0 3.0 9 26
+ 0.163148 1 3 tcp 1040 ------- 0 2.0 3.0 9 26
- 0.163148 1 3 tcp 1040 ------- 0 2.0 3.0 9 26
r 0.163388 2 0 tcp 1040 ------- 0 2.0 3.0 16 51
+ 0.163388 0 1 tcp 1040 ------- 0 2.0 3.0 16 51
r 0.16498 1 3 tcp 1040 ------- 0 2.0 3.0 9 26
+ 0.16498 3 1 ack 40 ------- 0 3.0 2.0 9 52
- 0.16498 3 1 ack 40 ------- 0 3.0 2.0 9 52
r 0.166012 3 1 ack 40 ------- 0 3.0 2.0 9 52
+ 0.166012 1 0 ack 40 ------- 0 3.0 2.0 9 52
- 0.166012 1 0 ack 40 ------- 0 3.0 2.0 9 52
r 0.168012 1 0 ack 40 ------- 0 3.0 2.0 8 49
+ 0.168012 0 2 ack 40 ------- 0 3.0 2.0 8 49
- 0.168012 0 2 ack 40 ------- 0 3.0 2.0 8 49
r 0.169044 0 2 ack 40 ------- 0 3.0 2.0 8 49
+ 0.169044 2 0 tcp 1040 ------- 0 2.0 3.0 17 53
- 0.169044 2 0 tcp 1040 ------- 0 2.0 3.0 17 53
+ 0.169044 2 0 tcp 1040 ------- 0 2.0 3.0 18 54
- 0.169788 0 1 tcp 1040 ------- 0 2.0 3.0 12 30
- 0.169876 2 0 tcp 1040 ------- 0 2.0 3.0 18 54
r 0.170876 2 0 tcp 1040 ------- 0 2.0 3.0 17 53
+ 0.170876 0 1 tcp 1040 ------- 0 2.0 3.0 17 53
r 0.171468 0 1 tcp 1040 ------- 0 2.0 3.0 10 27
+ 0.171468 1 3 tcp 1040 ------- 0 2.0 3.0 10 27
- 0.171468 1 3 tcp 1040 ------- 0 2.0 3.0 10 27
r 0.171708 2 0 tcp 1040 ------- 0 2.0 3.0 18 54
+ 0.171708 0 1 tcp 1040 ------- 0 2.0 3.0 18 54
r 0.1733 1 3 tcp 1040 ------- 0 2.0 3.0 10 27
+ 0.1733 3 1 ack 40 ------- 0 3.0 2.0 10 55
- 0.1733 3 1 ack 40 ------- 0 3.0 2.0 10 55
r 0.174332 3 1 ack 40 ------- 0 3.0 2.0 10 55
+ 0.174332 1 0 ack 40 ------- 0 3.0 2.0 10 55
- 0.174332 1 0 ack 40 ------- 0 3.0 2.0 10 55
r 0.176332 1 0 ack 40 ------- 0 3.0 2.0 9 52
+ 0.176332 0 2 ack 40 ------- 0 3.0 2.0 9 52
- 0.176332 0 2 ack 40 ------- 0 3.0 2.0 9 52
r 0.177364 0 2 ack 40 ------- 0 3.0 2.0 9 52
+ 0.177364 2 0 tcp 1040 ------- 0 2.0 3.0 19 56
- 0.177364 2 0 tcp 1040 ------- 0 2.0 3.0 19 56
+ 0.177364 2 0 tcp 1040 ------- 0 2.0 3.0 20 57
- 0.178108 0 1 tcp 1040 ------- 0 2.0 3.0 13 32
- 0.178196 2 0 tcp 1040 ------- 0 2.0 3.0 20 57
r 0.179196 2 0 tcp 1040 ------- 0 2.0 3.0 19 56
+ 0.179196 0 1 tcp 1040 ------- 0 2.0 3.0 19 56
r 0.179788 0 1 tcp 1040 ------- 0 2.0 3.0 11 29
+ 0.179788 1 3 tcp 1040 ------- 0 2.0 3.0 11 29
- 0.179788 1 3 tcp 1040 ------- 0 2.0 3.0 11 29
r 0.180028 2 0 tcp 1040 ------- 0 2.0 3.0 20 57
+ 0.180028 0 1 tcp 1040 ------- 0 2.0 3.0 20 57
r 0.18162 1 3 tcp 1040 ------- 0 2.0 3.0 11 29
+ 0.18162 3 1 ack 40 ------- 0 3.0 2.0 11 58
- 0.18162 3 1 ack 40 ------- 0 3.0 2.0 11 58
r 0.182652 3 1 ack 40 ------- 0 3.0 2.0 11 58
+ 0.182652 1 0 ack 40 ------- 0 3.0 2.0 11 58
- 0.182652 1 0 ack 40 ------- 0 3.0 2.0 11 58
r 0.184652 1 0 ack 40 ------- 0 3.0 2.0 10 55
+ 0.184652 0 2 ack 40 ------- 0 3.0 2.0 10 55
- 0.184652 0 2 ack 40 ------- 0 3.0 2.0 10 55
r 0.185684 0 2 ack 40 ------- 0 3.0 2.0 10 55
+ 0.185684 2 0 tcp 1040 ------- 0 2.0 3.0 21 59
- 0.185684 2 0 tcp 1040 ------- 0 2.0 3.0 21 59
+ 0.185684 2 0 tcp 1040 ------- 0 2.0 3.0 22 60
- 0.186428 0 1 tcp 1040 ------- 0 2.0 3.0 14 33
- 0.186516 2 0 tcp 1040 ------- 0 2.0 3.0 22 60
r 0.187516 2 0 tcp 1040 ------- 0 2.0 3.0 21 59
+ 0.187516 0 1 tcp 1040 ------- 0 2.0 3.0 21 59
r 0.188108 0 1 tcp 1040 ------- 0 2.0 3.0 12 30
+ 0.188108 1 3 tcp 1040 ------- 0 2.0 3.0 12 30
- 0.188108 1 3 tcp 1040 ------- 0 2.0 3.0 12 30
r 0.188348 2 0 tcp 1040 ------- 0 2.0 3.0 22 60
+ 0.188348 0 1 tcp 1040 ------- 0 2.0 3.0 22 60
r 0.18994 1 3 tcp 1040 ------- 0 2.0 3.0 12 30
+ 0.18994 3 1 ack 40 ------- 0 3.0 2.0 12 61
- 0.18994 3 1 ack 40 ------- 0 3.0 2.0 12 61
r 0.190972 3 1 ack 40 ------- 0 3.0 2.0 12 61
+ 0.190972 1 0 ack 40 ------- 0 3.0 2.0 12 61
- 0.190972 1 0 ack 40 ------- 0 3.0 2.0 12 61
r 0.192972 1 0 ack 40 ------- 0 3.0 2.0 11 58
+ 0.192972 0 2 ack 40 ------- 0 3.0 2.0 11 58
- 0.192972 0 2 ack 40 ------- 0 3.0 2.0 11 58
r 0.194004 0 2 ack 40 ------- 0 3.0 2.0 11 58
+ 0.194004 2 0 tcp 1040 ------- 0 2.0 3.0 23 62
- 0.194004 2 0 tcp 1040 ------- 0 2.0 3.0 23 62
+ 0.194004 2 0 tcp 1040 ------- 0 2.0 3.0 24 63
- 0.194748 0 1 tcp 1040 ------- 0 6.0 7.0 7 35
- 0.194836 2 0 tcp 1040 ------- 0 2.0 3.0 24 63
r 0.195836 2 0 tcp 1040 ------- 0 2.0 3.0 23 62
+ 0.195836 0 1 tcp 1040 ------- 0 2.0 3.0 23 62
r 0.196428 0 1 tcp 1040 ------- 0 2.0 3.0 13 32
+ 0.196428 1 3 tcp 1040 ------- 0 2.0 3.0 13 32
- 0.196428 1 3 tcp 1040 ------- 0 2.0 3.0 13 32
r 0.196668 2 0 tcp 1040 ------- 0 2.0 3.0 24 63
+ 0.196668 0 1 tcp 1040 ------- 0 2.0 3.0 24 63
r 0.19826 1 3 tcp 1040 ------- 0 2.0 3.0 13 32
+ 0.19826 3 1 ack 40 ------- 0 3.0 2.0 13 64
- 0.19826 3 1 ack 40 ------- 0 3.0 2.0 13 64
r 0.199292 3 1 ack 40 ------- 0 3.0 2.0 13 64
+ 0.199292 1 0 ack 40 ------- 0 3.0 2.0 13 64
- 0.199292 1 0 ack 40 ------- 0 3.0 2.0 13 64
r 0.201292 1 0 ack 40 ------- 0 3.0 2.0 12 61
+ 0.201292 0 2 ack 40 ------- 0 3.0 2.0 12 61
- 0.201292 0 2 ack 40 ------- 0 3.0 2.0 12 61
r 0.202324 0 2 ack 40 ------- 0 3.0 2.0 12 61
+ 0.202324 2 0 tcp 1040 ------- 0 2.0 3.0 25 65
- 0.202324 2 0 tcp 1040 ------- 0 2.0 3.0 25 65
+ 0.202324 2 0 tcp 1040 ------- 0 2.0 3.0 26 66
- 0.203068 0 1 tcp 1040 ------- 0 6.0 7.0 8 36
- 0.203156 2 0 tcp 1040 ------- 0 2.0 3.0 26 66
r 0.204156 2 0 tcp 1040 ------- 0 2.0 3.0 25 65
+ 0.204156 0 1 tcp 1040 ------- 0 2.0 3.0 25 65
r 0.204748 0 1 tcp 1040 ------- 0 2.0 3.0 14 33
+ 0.204748 1 3 tcp 1040 ------- 0 2.0 3.0 14 33
- 0.204748 1 3 tcp 1040 ------- 0 2.0 3.0 14 33
r 0.204988 2 0 tcp 1040 ------- 0 2.0 3.0 26 66
+ 0.204988 0 1 tcp 1040 ------- 0 2.0 3.0 26 66
r 0.20658 1 3 tcp 1040 ------- 0 2.0 3.0 14 33
+ 0.20658 3 1 ack 40 ------- 0 3.0 2.0 14 67
- 0.20658 3 1 ack 40 ------- 0 3.0 2.0 14 67
r 0.207612 3 1 ack 40 ------- 0 3.0 2.0 14 67
+ 0.207612 1 0 ack 40 ------- 0 3.0 2.0 14 67
- 0.207612 1 0 ack 40 ------- 0 3.0 2.0 14 67
r 0.209612 1 0 ack 40 ------- 0 3.0 2.0 13 64
+ 0.209612 0 2 ack 40 ------- 0 3.0 2.0 13 64
- 0.209612 0 2 ack 40 ------- 0 3.0 2.0 13 64
r 0.210644 0 2 ack 40 ------- 0 3.0 2.0 13 64
+ 0.210644 2 0 tcp 1040 ------- 0 2.0 3.0 27 68
- 0.210644 2 0 tcp 1040 ------- 0 2.0 3.0 27 68
+ 0.210644 2 0 tcp 1040 ------- 0 2.0 3.0 28 69
- 0.211388 0 1 tcp 1040 ------- 0 6.0 7.0 9 38
- 0.211476 2 0 tcp 1040 ------- 0 2.0 3.0 28 69
r 0.212476 2 0 tcp 1040 ------- 0 2.0 3.0 27 68
+ 0.212476 0 1 tcp 1040 ------- 0 2.0 3.0 27 68
r 0.213068 0 1 tcp 1040 ------- 0 6.0 7.0 7 35
+ 0.213068 1 7 tcp 1040 ------- 0 6.0 7.0 7 35
- 0.213068 1 7 tcp 1040 ------- 0 6.0 7.0 7 35
r 0.213308 2 0 tcp 1040 ------- 0 2.0 3.0 28 69
+ 0.213308 0 1 tcp 1040 ------- 0 2.0 3.0 28 69
r 0.2149 1 7 tcp 1040 ------- 0 6.0 7.0 7 35
+ 0.2149 7 1 ack 40 ------- 0 7.0 6.0 7 70
- 0.2149 7 1 ack 40 ------- 0 7.0 6.0 7 70
r 0.215932 7 1 ack 40 ------- 0 7.0 6.0 7 70
+ 0.215932 1 0 ack 40 ------- 0 7.0 6.0 7 70
- 0.215932 1 0 ack 40 ------- 0 7.0 6.0 7 70
r 0.217932 1 0 ack 40 ------- 0 3.0 2.0 14 67
+ 0.217932 0 2 ack 40 ------- 0 3.0 2.0 14 67
- 0.217932 0 2 ack 40 ------- 0 3.0 2.0 14 67
r 0.218964 0 2 ack 40 ------- 0 3.0 2.0 14 67
+ 0.218964 2 0 tcp 1040 ------- 0 2.0 3.0 29 71
- 0.218964 2 0 tcp 1040 ------- 0 2.0 3.0 29 71
+ 0.218964 2 0 tcp 1040 ------- 0 2.0 3.0 30 72
- 0.219708 0 1 tcp 1040 ------- 0 6.0 7.0 10 39
- 0.219796 2 0 tcp 1040 ------- 0 2.0 3.0 30 72
r 0.220796 2 0 tcp 1040 ------- 0 2.0 3.0 29 71
+ 0.220796 0 1 tcp 1040 ------- 0 2.0 3.0 29 71
r 0.221388 0 1 tcp 1040 ------- 0 6.0 7.0 8 36
+ 0.221388 1 7 tcp 1040 ------- 0 6.0 7.0 8 36
- 0.221388 1 7 tcp 1040 ------- 0 6.0 7.0 8 36
r 0.221628 2 0 tcp 1040 ------- 0 2.0 3.0 30 72
+ 0.221628 0 1 tcp 1040 ------- 0 2.0 3.0 30 72
r 0.22322 1 7 tcp 1040 ------- 0 6.0 7.0 8 36
+ 0.22322 7 1 ack 40 ------- 0 7.0 6.0 8 73
- 0.22322 7 1 ack 40 ------- 0 7.0 6.0 8 73
r 0.224252 7 1 ack 40 ------- 0 7.0 6.0 8 73
+ 0.224252 1 0 ack 40 ------- 0 7.0 6.0 8 73
- 0.224252 1 0 ack 40 ------- 0 7.0 6.0 8 73
r 0.226252 1 0 ack 40 ------- 0 7.0 6.0 7 70
+ 0.226252 0 6 ack 40 ------- 0 7.0 6.0 7 70
- 0.226252 0 6 ack 40 ------- 0 7.0 6.0 7 70
r 0.227284 0 6 ack 40 ------- 0 7.0 6.0 7 70
+ 0.227284 6 0 tcp 1040 ------- 0 6.0 7.0 15 74
- 0.227284 6 0 tcp 1040 ------- 0 6.0 7.0 15 74
+ 0.227284 6 0 tcp 1040 ------- 0 6.0 7.0 16 75
- 0.228028 0 1 tcp 1040 ------- 0 6.0 7.0 11 42
- 0.228116 6 0 tcp 1040 ------- 0 6.0 7.0 16 75
r 0.229116 6 0 tcp 1040 ------- 0 6.0 7.0 15 74
+ 0.229116 0 1 tcp 1040 ------- 0 6.0 7.0 15 74
r 0.229708 0 1 tcp 1040 ------- 0 6.0 7.0 9 38
+ 0.229708 1 7 tcp 1040 ------- 0 6.0 7.0 9 38
- 0.229708 1 7 tcp 1040 ------- 0 6.0 7.0 9 38
r 0.229948 6 0 tcp 1040 ------- 0 6.0 7.0 16 75
+ 0.229948 0 1 tcp 1040 ------- 0 6.0 7.0 16 75
r 0.23154 1 7 tcp 1040 ------- 0 6.0 7.0 9 38
+ 0.23154 7 1 ack 40 ------- 0 7.0 6.0 9 76
- 0.23154 7 1 ack 40 ------- 0 7.0 6.0 9 76
r 0.232572 7 1 ack 40 ------- 0 7.0 6.0 9 76
+ 0.232572 1 0 ack 40 ------- 0 7.0 6.0 9 76
- 0.232572 1 0 ack 40 ------- 0 7.0 6.0 9 76
r 0.234572 1 0 ack 40 ------- 0 7.0 6.0 8 73
+ 0.234572 0 6 ack 40 ------- 0 7.0 6.0 8 73
- 0.234572 0 6 ack 40 ------- 0 7.0 6.0 8 73
+ 0.234602 18 0 tcp 40 ------- 0 18.0 19.0 0 77
- 0.234602 18 0 tcp 40 ------- 0 18.0 19.0 0 77
r 0.235604 0 6 ack 40 ------- 0 7.0 6.0 8 73
+ 0.235604 6 0 tcp 1040 ------- 0 6.0 7.0 17 78
- 0.235604 6 0 tcp 1040 ------- 0 6.0 7.0 17 78
+ 0.235604 6 0 tcp 1040 ------- 0 6.0 7.0 18 79
r 0.235634 18 0 tcp 40 ------- 0 18.0 19.0 0 77
+ 0.235634 0 1 tcp 40 ------- 0 18.0 19.0 0 77
- 0.236348 0 1 tcp 1040 ------- 0 6.0 7.0 12 43
- 0.236436 6 0 tcp 1040 ------- 0 6.0 7.0 18 79
r 0.237436 6 0 tcp 1040 ------- 0 6.0 7.0 17 78
+ 0.237436 0 1 tcp 1040 ------- 0 6.0 7.0 17 78
r 0.238028 0 1 tcp 1040 ------- 0 6.0 7.0 10 39
+ 0.238028 1 7 tcp 1040 ------- 0 6.0 7.0 10 39
- 0.238028 1 7 tcp 1040 ------- 0 6.0 7.0 10 39
r 0.238268 6 0 tcp 1040 ------- 0 6.0 7.0 18 79
+ 0.238268 0 1 tcp 1040 ------- 0 6.0 7.0 18 79
r 0.23986 1 7 tcp 1040 ------- 0 6.0 7.0 10 39
+ 0.23986 7 1 ack 40 ------- 0 7.0 6.0 10 80
- 0.23986 7 1 ack 40 ------- 0 7.0 6.0 10 80
r 0.240892 7 1 ack 40 ------- 0 7.0 6.0 10 80
+ 0.240892 1 0 ack 40 ------- 0 7.0 6.0 10 80
- 0.240892 1 0 ack 40 ------- 0 7.0 6.0 10 80
r 0.242892 1 0 ack 40 ------- 0 7.0 6.0 9 76
+ 0.242892 0 6 ack 40 ------- 0 7.0 6.0 9 76
- 0.242892 0 6 ack 40 ------- 0 7.0 6.0 9 76
r 0.243924 0 6 ack 40 ------- 0 7.0 6.0 9 76
+ 0.243924 6 0 tcp 1040 ------- 0 6.0 7.0 19 81
- 0.243924 6 0 tcp 1040 ------- 0 6.0 7.0 19 81
+ 0.243924 6 0 tcp 1040 ------- 0 6.0 7.0 20 82
- 0.244668 0 1 tcp 1040 ------- 0 8.0 9.0 1 45
- 0.244756 6 0 tcp 1040 ------- 0 6.0 7.0 20 82
r 0.245756 6 0 tcp 1040 ------- 0 6.0 7.0 19 81
+ 0.245756 0 1 tcp 1040 ------- 0 6.0 7.0 19 81
r 0.246348 0 1 tcp 1040 ------- 0 6.0 7.0 11 42
+ 0.246348 1 7 tcp 1040 ------- 0 6.0 7.0 11 42
- 0.246348 1 7 tcp 1040 ------- 0 6.0 7.0 11 42
r 0.246588 6 0 tcp 1040 ------- 0 6.0 7.0 20 82
+ 0.246588 0 1 tcp 1040 ------- 0 6.0 7.0 20 82
r 0.24818 1 7 tcp 1040 ------- 0 6.0 7.0 11 42
+ 0.24818 7 1 ack 40 ------- 0 7.0 6.0 11 83
- 0.24818 7 1 ack 40 ------- 0 7.0 6.0 11 83
r 0.249212 7 1 ack 40 ------- 0 7.0 6.0 11 83
+ 0.249212 1 0 ack 40 ------- 0 7.0 6.0 11 83
- 0.249212 1 0 ack 40 ------- 0 7.0 6.0 11 83
r 0.251212 1 0 ack 40 ------- 0 7.0 6.0 10 80
+ 0.251212 0 6 ack 40 ------- 0 7.0 6.0 10 80
- 0.251212 0 6 ack 40 ------- 0 7.0 6.0 10 80
r 0.252244 0 6 ack 40 ------- 0 7.0 6.0 10 80
+ 0.252244 6 0 tcp 1040 ------- 0 6.0 7.0 21 84
- 0.252244 6 0 tcp 1040 ------- 0 6.0 7.0 21 84
+ 0.252244 6 0 tcp 1040 ------- 0 6.0 7.0 22 85
- 0.252988 0 1 tcp 1040 ------- 0 6.0 7.0 13 47
- 0.253076 6 0 tcp 1040 ------- 0 6.0 7.0 22 85
r 0.254076 6 0 tcp 1040 ------- 0 6.0 7.0 21 84
+ 0.254076 0 1 tcp 1040 ------- 0 6.0 7.0 21 84
r 0.254668 0 1 tcp 1040 ------- 0 6.0 7.0 12 43
+ 0.254668 1 7 tcp 1040 ------- 0 6.0 7.0 12 43
- 0.254668 1 7 tcp 1040 ------- 0 6.0 7.0 12 43
r 0.254908 6 0 tcp 1040 ------- 0 6.0 7.0 22 85
+ 0.254908 0 1 tcp 1040 ------- 0 6.0 7.0 22 85
r 0.2565 1 7 tcp 1040 ------- 0 6.0 7.0 12 43
+ 0.2565 7 1 ack 40 ------- 0 7.0 6.0 12 86
- 0.2565 7 1 ack 40 ------- 0 7.0 6.0 12 86
r 0.257532 7 1 ack 40 ------- 0 7.0 6.0 12 86
+ 0.257532 1 0 ack 40 ------- 0 7.0 6.0 12 86
- 0.257532 1 0 ack 40 ------- 0 7.0 6.0 12 86
r 0.259532 1 0 ack 40 ------- 0 7.0 6.0 11 83
+ 0.259532 0 6 ack 40 ------- 0 7.0 6.0 11 83
- 0.259532 0 6 ack 40 ------- 0 7.0 6.0 11 83
r 0.260564 0 6 ack 40 ------- 0 7.0 6.0 11 83
+ 0.260564 6 0 tcp 1040 ------- 0 6.0 7.0 23 87
- 0.260564 6 0 tcp 1040 ------- 0 6.0 7.0 23 87
+ 0.260564 6 0 tcp 1040 ------- 0 6.0 7.0 24 88
- 0.261308 0 1 tcp 1040 ------- 0 8.0 9.0 2 46
- 0.261396 6 0 tcp 1040 ------- 0 6.0 7.0 24 88
r 0.262396 6 0 tcp 1040 ------- 0 6.0 7.0 23 87
+ 0.262396 0 1 tcp 1040 ------- 0 6.0 7.0 23 87
r 0.262988 0 1 tcp 1040 ------- 0 8.0 9.0 1 45
+ 0.262988 1 9 tcp 1040 ------- 0 8.0 9.0 1 45
- 0.262988 1 9 tcp 1040 ------- 0 8.0 9.0 1 45
r 0.263228 6 0 tcp 1040 ------- 0 6.0 7.0 24 88
+ 0.263228 0 1 tcp 1040 ------- 0 6.0 7.0 24 88
r 0.26482 1 9 tcp 1040 ------- 0 8.0 9.0 1 45